# vtk DataFile Version 3.0
Dislocation network (FCC crystal) exported from OpenDiS
ASCII
DATASET UNSTRUCTURED_GRID
POINTS 4468 FLOAT
0.00000000e+00 0.00000000e+00 0.00000000e+00
1.95620000e+04 0.00000000e+00 0.00000000e+00
0.00000000e+00 1.95620000e+04 0.00000000e+00
0.00000000e+00 0.00000000e+00 1.95620000e+04
1.95620000e+04 1.95620000e+04 0.00000000e+00
1.95620000e+04 0.00000000e+00 1.95620000e+04
0.00000000e+00 1.95620000e+04 1.95620000e+04
1.95620000e+04 1.95620000e+04 1.95620000e+04
2.20595102e+03 6.37907176e+03 1.28199987e+04
2.21535436e+03 6.37167012e+03 1.28220004e+04
2.20595102e+03 6.37907176e+03 1.28199987e+04
2.26683727e+03 6.42558905e+03 1.28056298e+04
6.81905490e+03 7.20614624e+03 5.66384352e+03
6.94184069e+03 7.15062516e+03 5.59657881e+03
6.81905490e+03 7.20614624e+03 5.66384352e+03
6.68972880e+03 7.26807765e+03 5.73123820e+03
2.45686900e+03 6.21525077e+03 1.29070957e+04
2.38828918e+03 6.25609900e+03 1.28793641e+04
2.45686900e+03 6.21525077e+03 1.29070957e+04
2.57389375e+03 6.14972747e+03 1.29585971e+04
1.75767259e+04 8.33939872e+03 5.78094249e+03
1.74741786e+04 8.29624367e+03 5.72155027e+03
1.75767259e+04 8.33939872e+03 5.78094249e+03
1.76381469e+04 8.36427646e+03 5.81748580e+03
2.69449423e+03 6.08766860e+03 1.30171387e+04
2.57389375e+03 6.14972747e+03 1.29585971e+04
2.69449423e+03 6.08766860e+03 1.30171387e+04
2.80824942e+03 6.14687604e+03 1.29625910e+04
9.80683651e+03 1.81898415e+04 9.67514153e+03
9.90046817e+03 1.82169562e+04 9.74165844e+03
9.80683651e+03 1.81898415e+04 9.67514153e+03
9.72321444e+03 1.81621257e+04 9.61923529e+03
1.00134365e+04 5.30258741e+03 8.06170576e+03
9.95247267e+03 5.33475336e+03 8.15483550e+03
1.00134365e+04 5.30258741e+03 8.06170576e+03
1.00586082e+04 5.27407349e+03 7.98802011e+03
4.67191505e+03 1.35171724e+04 1.04144873e+04
4.71454864e+03 1.34773606e+04 1.04969327e+04
4.67191505e+03 1.35171724e+04 1.04144873e+04
4.60467264e+03 1.35747258e+04 1.02896915e+04
3.18303743e+03 6.37977638e+03 1.28207033e+04
3.17324494e+03 6.37212133e+03 1.28228408e+04
3.18303743e+03 6.37977638e+03 1.28207033e+04
3.12044734e+03 6.42718280e+03 1.28055197e+04
6.95584257e+03 4.20641479e+03 9.48132787e+03
7.02784588e+03 4.23205854e+03 9.52768743e+03
6.95584257e+03 4.20641479e+03 9.48132787e+03
6.87337788e+03 4.18412944e+03 9.42114853e+03
2.96601828e+03 6.52511420e+03 1.27490220e+04
3.12044734e+03 6.42718280e+03 1.28055197e+04
2.96601828e+03 6.52511420e+03 1.27490220e+04
2.81962752e+03 6.60673055e+03 1.26842476e+04
2.81962752e+03 6.60673055e+03 1.26842476e+04
2.69449423e+03 6.67148501e+03 1.26238688e+04
2.69449423e+03 6.67148501e+03 1.26238688e+04
2.56077047e+03 6.60228312e+03 1.26883906e+04
2.56077047e+03 6.60228312e+03 1.26883906e+04
2.41359649e+03 6.51968533e+03 1.27529668e+04
2.41359649e+03 6.51968533e+03 1.27529668e+04
2.26683727e+03 6.42558905e+03 1.28056298e+04
7.79355216e+03 4.20911378e+03 9.47860739e+03
7.87611914e+03 4.18691484e+03 9.41823935e+03
7.79355216e+03 4.20911378e+03 9.47860739e+03
7.71959389e+03 4.23524346e+03 9.52643598e+03
1.68050128e+04 1.71901808e+04 1.28018461e+04
1.67161960e+04 1.71993075e+04 1.28815362e+04
1.68050128e+04 1.71901808e+04 1.28018461e+04
1.67160739e+04 1.71817110e+04 1.27213769e+04
6.39854607e+03 1.74789485e+03 7.52414197e+03
6.31491171e+03 1.68816278e+03 7.38077553e+03
6.39854607e+03 1.74789485e+03 7.52414197e+03
6.48815590e+03 1.80163014e+03 7.66748709e+03
1.67160739e+04 1.71817110e+04 1.27213769e+04
1.65657067e+04 1.71608310e+04 1.25918897e+04
1.65657067e+04 1.71608310e+04 1.25918897e+04
1.64320002e+04 1.71364174e+04 1.24825968e+04
1.30786959e+04 8.01364174e+03 4.80032024e+03
1.30696365e+04 8.02126229e+03 4.79888143e+03
1.30786959e+04 8.01364174e+03 4.80032024e+03
1.31391734e+04 7.96489078e+03 4.81204680e+03
1.62004889e+04 1.70829214e+04 1.23045815e+04
1.63174468e+04 1.71116191e+04 1.23928418e+04
1.62004889e+04 1.70829214e+04 1.23045815e+04
1.60697483e+04 1.70468131e+04 1.22099492e+04
1.60697483e+04 1.70468131e+04 1.22099492e+04
1.59409296e+04 1.70062107e+04 1.21217330e+04
1.59409296e+04 1.70062107e+04 1.21217330e+04
1.58204964e+04 1.69630318e+04 1.20444787e+04
1.58204964e+04 1.69630318e+04 1.20444787e+04
1.57004856e+04 1.69147268e+04 1.19727728e+04
1.57004856e+04 1.69147268e+04 1.19727728e+04
1.55873368e+04 1.68646380e+04 1.19097129e+04
1.55873368e+04 1.68646380e+04 1.19097129e+04
1.54884782e+04 1.68172178e+04 1.18582744e+04
1.54884782e+04 1.68172178e+04 1.18582744e+04
1.54204365e+04 1.67829804e+04 1.18244702e+04
1.54204365e+04 1.67829804e+04 1.18244702e+04
1.53438891e+04 1.68195831e+04 1.18644149e+04
1.53438891e+04 1.68195831e+04 1.18644149e+04
1.52480822e+04 1.68639111e+04 1.19158939e+04
1.52480822e+04 1.68639111e+04 1.19158939e+04
1.51361845e+04 1.69121279e+04 1.19795747e+04
1.51361845e+04 1.69121279e+04 1.19795747e+04
1.50119909e+04 1.69609341e+04 1.20549621e+04
1.50119909e+04 1.69609341e+04 1.20549621e+04
1.48812561e+04 1.70065522e+04 1.21400788e+04
5.47086167e+03 9.94151874e+03 1.25701255e+04
5.58785317e+03 9.86911778e+03 1.26147160e+04
5.47086167e+03 9.94151874e+03 1.25701255e+04
5.33556119e+03 1.00345828e+04 1.25278891e+04
1.47590858e+04 1.70445055e+04 1.22242959e+04
1.48812561e+04 1.70065522e+04 1.21400788e+04
1.47590858e+04 1.70445055e+04 1.22242959e+04
1.46399796e+04 1.70769201e+04 1.23109875e+04
1.46399796e+04 1.70769201e+04 1.23109875e+04
1.45612243e+04 1.70963403e+04 1.23703225e+04
1.32287738e+04 7.90007643e+03 4.83683284e+03
1.32837257e+04 7.86212228e+03 4.85383059e+03
1.32287738e+04 7.90007643e+03 4.83683284e+03
1.31391734e+04 7.96489078e+03 4.81204680e+03
5.33556119e+03 1.00345828e+04 1.25278891e+04
5.26654748e+03 1.00897247e+04 1.25140173e+04
5.03103756e+03 4.82370101e+03 1.20654113e+04
5.09870043e+03 4.68412807e+03 1.21373214e+04
5.03103756e+03 4.82370101e+03 1.20654113e+04
4.99727180e+03 4.88970388e+03 1.20331742e+04
1.61383261e+03 1.06628159e+03 7.26342491e+03
1.58478288e+03 1.03357341e+03 7.32518282e+03
1.61383261e+03 1.06628159e+03 7.26342491e+03
1.64819167e+03 1.10718499e+03 7.18816245e+03
1.40358603e+04 1.71866662e+04 1.28053607e+04
1.41013617e+04 1.71921609e+04 1.28653674e+04
1.40358603e+04 1.71866662e+04 1.28053607e+04
1.41125114e+04 1.71795371e+04 1.27358387e+04
1.41013617e+04 1.71921609e+04 1.28653674e+04
1.42019213e+04 1.72051722e+04 1.29529157e+04
1.42978943e+04 1.72215131e+04 1.30325479e+04
1.42019213e+04 1.72051722e+04 1.29529157e+04
1.42978943e+04 1.72215131e+04 1.30325479e+04
1.44299589e+04 1.72472482e+04 1.31388774e+04
1.44299589e+04 1.72472482e+04 1.31388774e+04
1.45818675e+04 1.72825958e+04 1.32554383e+04
1.45818675e+04 1.72825958e+04 1.32554383e+04
1.47330922e+04 1.73241454e+04 1.33651135e+04
1.47330922e+04 1.73241454e+04 1.33651135e+04
1.48660350e+04 1.73659777e+04 1.34562239e+04
1.48660350e+04 1.73659777e+04 1.34562239e+04
1.49773845e+04 1.74051350e+04 1.35284161e+04
1.49773845e+04 1.74051350e+04 1.35284161e+04
1.50818421e+04 1.74453051e+04 1.35927037e+04
1.50818421e+04 1.74453051e+04 1.35927037e+04
1.51832558e+04 1.74877872e+04 1.36516352e+04
1.51832558e+04 1.74877872e+04 1.36516352e+04
1.52753299e+04 1.75293956e+04 1.37021009e+04
1.52753299e+04 1.75293956e+04 1.37021009e+04
1.53550728e+04 1.75670355e+04 1.37442040e+04
1.53550728e+04 1.75670355e+04 1.37442040e+04
1.54204365e+04 1.75991530e+04 1.37774502e+04
1.54204365e+04 1.75991530e+04 1.37774502e+04
1.54791052e+04 1.75703481e+04 1.37475865e+04
1.54791052e+04 1.75703481e+04 1.37475865e+04
1.55600239e+04 1.75321476e+04 1.37048682e+04
1.55600239e+04 1.75321476e+04 1.37048682e+04
1.56542292e+04 1.74896375e+04 1.36531730e+04
1.56542292e+04 1.74896375e+04 1.36531730e+04
1.57562500e+04 1.74470105e+04 1.35937793e+04
1.57562500e+04 1.74470105e+04 1.35937793e+04
1.58590500e+04 1.74076233e+04 1.35303664e+04
1.58590500e+04 1.74076233e+04 1.35303664e+04
1.59693720e+04 1.73689923e+04 1.34586755e+04
1.59693720e+04 1.73689923e+04 1.34586755e+04
1.61012151e+04 1.73276936e+04 1.33681310e+04
1.61012151e+04 1.73276936e+04 1.33681310e+04
1.62507803e+04 1.72869407e+04 1.32593187e+04
1.62507803e+04 1.72869407e+04 1.32593187e+04
1.63988663e+04 1.72523945e+04 1.31457789e+04
1.63988663e+04 1.72523945e+04 1.31457789e+04
1.65312650e+04 1.72270422e+04 1.30387325e+04
1.65312650e+04 1.72270422e+04 1.30387325e+04
1.66060416e+04 1.72150857e+04 1.29759123e+04
1.67161960e+04 1.71993075e+04 1.28815362e+04
1.66060416e+04 1.72150857e+04 1.29759123e+04
9.52208861e+03 1.58658571e+04 3.40876910e+03
9.51168465e+03 1.58543575e+04 3.40986469e+03
9.52208861e+03 1.58658571e+04 3.40876910e+03
9.60009429e+03 1.57787566e+04 3.39967433e+03
2.05782933e+03 1.15428133e+04 3.37253701e+03
2.11282469e+03 1.15847937e+04 3.27556122e+03
2.05782933e+03 1.15428133e+04 3.37253701e+03
2.00401312e+03 1.15047533e+04 3.46441315e+03
1.49696919e+04 1.33729725e+04 1.10562994e+04
1.48490488e+04 1.34593471e+04 1.10220310e+04
1.49696919e+04 1.33729725e+04 1.10562994e+04
1.50678793e+04 1.33090558e+04 1.10905702e+04
4.38943591e+03 1.37020418e+04 1.10502018e+04
4.34216496e+03 1.37373386e+04 1.09676340e+04
4.38943591e+03 1.37020418e+04 1.10502018e+04
4.44808911e+03 1.36656368e+04 1.11452600e+04
9.16574969e+03 1.54386256e+04 3.47966165e+03
9.26023029e+03 1.55580887e+04 3.45467918e+03
9.16574969e+03 1.54386256e+04 3.47966165e+03
9.05532680e+03 1.52920869e+04 3.51577744e+03
9.05532680e+03 1.52920869e+04 3.51577744e+03
8.95300624e+03 1.51487234e+04 3.55682039e+03
8.95300624e+03 1.51487234e+04 3.55682039e+03
8.87102108e+03 1.50267231e+04 3.59683558e+03
8.87102108e+03 1.50267231e+04 3.59683558e+03
8.82855880e+03 1.49615195e+04 3.61957690e+03
8.78764357e+03 1.48970786e+04 3.64310254e+03
8.82855880e+03 1.49615195e+04 3.61957690e+03
8.78764357e+03 1.48970786e+04 3.64310254e+03
8.71989088e+03 1.47858679e+04 3.68656050e+03
8.71989088e+03 1.47858679e+04 3.68656050e+03
8.65489605e+03 1.46717536e+04 3.73567998e+03
8.65489605e+03 1.46717536e+04 3.73567998e+03
8.59897502e+03 1.45681793e+04 3.78333329e+03
8.59897502e+03 1.45681793e+04 3.78333329e+03
8.54946205e+03 1.44717355e+04 3.83026415e+03
8.54946205e+03 1.44717355e+04 3.83026415e+03
[...]
CELL_DATA 2231
SCALARS SlipSystemID int 1
LOOKUP_TABLE default
0
10
7
1
1
10
10
4
4
10
7
4
4
9
9
6
6
7
10
4
4
10
10
10
7
7
7
1
1
1
4
12
12
4
4
10
10
4
4
4
4
4
4
4
4
1
1
1
1
1
10
10
1
1
1
10
10
10
2
2
3
3
4
1
4
4
4
4
4
4
4
4
4
4
4
4
1
1
1
1
1
1
1
1
1
1
1
1
5
11
3
3
10
10
6
6
5
5
5
5
5
5
5
5
5
5
11
11
11
11
11
9
9
11
11
11
11
11
11
11
11
4
4
11
5
5
5
5
5
5
5
5
5
5
5
5
11
11
11
11
11
11
11
11
11
11
11
8
2
10
10
2
2
9
9
12
2
2
5
5
8
8
8
4
4
7
7
1
1
1
1
10
10
2
8
6
6
11
11
8
8
2
2
2
2
8
8
2
8
11
11
8
8
8
8
8
7
7
11
11
6
9
11
11
4
6
6
6
6
4
5
5
5
9
9
9
9
4
4
5
5
9
6
4
4
6
6
6
6
6
6
5
9
9
9
9
9
9
9
9
2
2
3
12
12
9
9
2
2
8
3
3
3
3
3
3
12
12
12
7
7
12
12
10
10
9
9
2
2
8
8
12
12
3
12
3
3
3
3
3
3
3
3
3
3
12
12
12
12
12
12
12
12
12
12
10
7
5
5
8
8
10
10
10
10
7
7
7
7
12
12
10
10
7
10
3
3
10
10
10
10
10
10
7
7
7
7
7
10
10
1
4
12
12
3
11
11
4
4
4
4
4
4
4
4
1
1
1
1
1
1
1
2
12
4
1
6
6
4
4
4
4
4
4
4
4
4
1
1
1
1
1
1
1
1
1
2
2
5
3
3
3
3
5
5
5
11
8
8
5
5
7
7
11
5
9
9
5
5
5
5
11
11
8
8
9
9
8
2
7
7
2
2
2
2
2
8
8
8
8
8
7
2
8
12
12
10
9
9
2
2
2
2
8
8
8
3
3
10
11
11
6
9
3
3
6
6
6
6
9
9
9
9
11
11
9
6
11
11
6
6
3
3
6
1
12
12
8
5
5
12
3
3
3
3
3
3
3
12
12
12
12
12
12
8
3
3
3
3
3
8
8
4
4
8
3
12
6
6
4
4
11
11
12
12
2
2
7
6
6
4
10
10
10
10
7
7
1
1
7
7
7
7
1
1
7
10
8
8
10
10
10
10
1
1
7
10
7
7
7
7
1
1
4
1
8
8
1
1
4
4
4
4
1
1
1
1
1
1
1
3
4
5
5
4
4
4
4
4
1
1
1
1
1
5
5
5
11
5
5
5
5
5
11
11
11
11
11
11
3
3
3
3
5
5
9
9
5
5
11
11
6
6
11
11
2
2
8
8
2
8
10
10
2
2
2
8
5
5
12
8
2
12
12
2
2
2
8
8
8
11
6
9
11
11
5
5
6
6
5
5
9
6
5
5
9
9
5
5
9
5
5
9
6
3
3
6
6
6
6
6
6
2
9
6
9
9
9
9
9
2
2
2
2
5
5
3
12
10
3
3
3
3
3
3
10
10
12
5
5
12
12
12
12
12
12
12
2
2
2
2
3
3
3
1
1
12
1
9
9
12
7
7
11
10
7
10
10
10
10
7
7
7
7
7
12
9
9
7
7
10
10
7
1
1
4
4
1
1
4
9
9
4
4
4
4
8
4
1
8
8
1
1
1
1
1
1
1
1
10
10
4
1
9
9
4
4
10
10
4
4
11
11
4
1
3
1
1
10
10
10
5
11
11
11
5
5
5
10
11
11
11
12
5
9
5
5
5
11
11
7
5
11
12
12
7
7
7
11
11
6
2
8
12
12
2
2
2
1
7
8
6
6
8
8
8
8
11
11
2
8
7
7
5
5
5
5
8
2
8
8
11
11
11
11
9
6
11
11
6
6
6
6
9
9
9
9
5
5
3
3
4
6
9
10
6
6
6
6
6
9
9
9
9
9
8
8
12
3
1
1
6
6
3
3
3
3
3
3
3
12
12
12
12
12
12
2
2
12
12
3
7
7
3
12
3
3
3
3
3
3
3
3
3
3
12
12
12
12
12
12
12
12
12
6
6
7
5
10
10
10
4
4
10
7
6
6
7
7
7
2
2
6
6
10
12
10
10
4
10
10
10
7
7
10
7
10
10
7
7
7
7
7
7
7
7
4
11
1
1
4
4
4
4
4
4
1
4
4
1
1
1
1
1
6
6
4
1
11
11
4
4
3
1
1
4
4
3
3
1
1
1
1
7
11
5
5
11
5
11
11
8
8
5
5
5
5
5
5
5
11
11
11
11
11
2
8
6
6
3
2
2
2
2
8
8
8
3
3
8
3
8
8
8
2
2
2
2
2
2
2
2
2
2
8
8
8
8
8
8
8
2
4
9
6
6
6
6
6
6
6
9
9
9
9
11
11
6
10
10
8
5
5
6
6
9
7
7
4
4
6
6
9
9
1
1
12
3
2
3
3
3
3
12
12
12
12
12
2
12
3
12
3
3
12
3
3
12
11
11
12
12
7
7
10
7
2
2
10
10
10
10
7
7
7
7
10
7
9
7
7
6
10
7
7
7
7
7
3
3
4
1
12
12
4
4
4
4
1
1
1
1
3
3
4
1
7
9
9
12
12
7
9
9
1
1
12
12
5
11
10
10
5
5
5
5
12
12
5
11
1
1
5
10
11
5
5
5
5
11
11
11
2
8
8
6
2
2
2
8
11
11
8
8
8
8
1
4
4
2
11
11
2
2
2
9
9
2
2
2
8
10
10
8
8
8
8
8
9
6
4
6
6
6
6
9
9
9
1
10
10
9
6
10
10
6
6
6
6
7
9
9
3
3
3
3
1
1
12
3
12
12
12
12
12
12
1
1
3
12
1
1
3
6
6
11
8
8
4
4
12
11
6
10
1
10
10
10
10
8
10
7
5
5
7
7
7
7
3
3
9
5
10
10
3
3
3
7
7
3
3
9
1
4
4
4
4
8
8
4
4
8
4
2
2
4
4
4
4
4
4
4
1
1
1
1
1
4
4
2
2
11
6
5
5
5
5
5
6
11
11
11
11
11
11
11
11
5
5
11
5
5
5
5
5
5
7
7
5
11
10
10
11
11
9
11
12
12
4
4
2
8
9
2
2
2
2
7
2
8
8
8
8
8
8
8
6
6
5
5
2
8
12
12
8
8
6
6
9
6
6
6
6
6
6
9
9
9
9
9
9
6
7
6
6
6
6
4
4
6
6
1
1
5
5
7
7
12
3
3
3
5
5
3
3
3
12
12
12
12
10
3
2
2
3
3
3
3
3
12
12
12
12
10
9
9
7
10
9
9
10
8
7
7
7
7
3
3
9
7
10
10
10
10
10
10
8
8
7
9
7
7
7
7
3
1
4
3
3
4
4
4
1
1
11
11
10
10
4
1
2
2
2
2
4
4
4
11
11
8
8
9
1
1
8
8
11
4
9
9
5
5
4
4
5
5
11
11
11
11
11
1
11
11
4
4
11
5
4
4
5
5
5
5
5
5
5
5
11
4
4
11
11
11
11
11
2
2
2
2
8
8
8
8
7
8
11
2
7
1
8
8
8
8
8
9
7
7
12
12
6
9
7
5
5
4
6
9
9
9
12
6
6
6
3
3
12
12
3
3
10
10
12
10
3
3
3
3
12
12
12
12
12
12
7
4
4
9
10
4
4
7
7
3
3
10
7
9
3
3
10
7
7
7
7
4
1
4
4
4
4
1
1
1
1
1
12
5
5
4
3
1
1
1
5
5
12
12
5
11
5
5
5
10
11
11
10
4
5
5
5
5
11
11
7
7
11
11
11
11
7
8
2
7
2
2
2
8
2
8
8
4
4
2
8
2
2
2
2
2
8
8
8
8
8
6
6
9
8
6
6
6
9
9
9
5
6
6
6
6
6
6
9
9
9
9
9
12
7
3
12
12
12
12
10
10
12
3
3
3
3
12
12
12
12
12
10
10
10
10
10
10
7
11
11
7
7
10
10
9
10
7
9
7
12
6
6
4
4
4
4
1
1
1
1
2
2
4
4
4
1
1
1
1
3
11
1
5
5
2
2
2
2
5
5
5
5
5
11
11
11
11
2
2
2
2
2
2
8
8
8
4
4
2
8
8
2
2
2
8
8
8
6
9
6
6
6
6
9
9
9
9
9
11
11
3
11
7
9
12
3
3
4
3
12
12
12
4
12
10
10
3
3
9
12
12
12
7
9
10
10
10
10
7
10
7
12
12
10
10
10
6
10
7
7
7
7
1
4
4
4
1
1
1
1
1
7
1
1
1
1
1
7
7
5
5
5
5
5
11
11
11
11
11
4
4
2
2
5
5
5
5
11
11
11
11
1
2
9
2
2
2
2
2
2
2
2
8
8
8
4
10
10
2
2
2
2
8
8
8
8
8
8
8
8
1
9
6
6
10
6
9
9
10
10
8
9
8
11
6
11
11
9
9
3
12
3
3
12
4
3
3
3
3
3
3
3
12
12
12
12
12
7
10
10
10
7
7
7
7
7
10
10
10
10
10
10
10
10
7
12
7
7
7
7
7
7
1
8
4
4
4
4
4
1
1
1
1
1
1
1
1
1
9
4
4
4
4
1
1
1
1
1
1
8
1
1
5
5
5
5
11
11
11
11
5
11
11
11
5
11
11
11
11
8
8
2
2
2
2
2
8
8
8
8
8
2
2
8
1
1
9
6
3
6
9
6
9
9
12
6
6
6
9
9
9
9
3
12
3
3
3
3
12
12
12
3
3
10
12
12
7
10
2
10
10
10
7
7
7
7
11
10
7
10
10
10
10
10
10
4
7
3
7
7
7
7
7
10
4
4
4
4
4
1
1
1
1
1
1
4
1
10
5
5
4
3
5
5
5
11
11
11
4
6
4
1
9
5
5
5
7
12
7
10
2
2
1
10
7
1
11
8
8
5
3
8
8
12
7
12
12
9
1
8
6
9
9
6
11
6
8
9
7
11
12
2
13
8
6
9
8
8
11
11
2
2
7
2
10
10
SCALARS DislocationType int 1
LOOKUP_TABLE default
0
2
2
3
3
3
3
3
3
3
3
3
3
3
3
3
3
2
2
3
3
3
3
3
3
3
3
3
3
2
2
3
3
2
2
2
2
2
3
3
3
3
3
3
3
3
3
3
3
3
3
3
3
3
2
3
3
2
3
3
3
3
2
2
2
2
2
2
3
3
3
3
3
3
3
3
3
3
3
3
3
3
3
3
2
2
2
2
2
2
3
3
3
3
3
3
2
2
3
3
3
3
3
3
3
3
3
3
3
3
3
3
3
3
3
2
2
3
3
2
2
3
3
2
2
2
2
2
2
3
3
3
3
3
3
3
3
3
3
3
3
3
3
2
2
2
2
2
2
3
3
3
3
3
3
3
3
3
2
2
3
3
3
3
3
3
3
3
3
2
3
3
3
2
2
3
3
2
2
3
3
3
3
3
3
2
3
3
3
2
3
3
3
3
3
3
3
3
3
3
2
2
3
3
2
3
3
3
3
3
3
3
2
3
3
3
3
3
2
2
3
2
2
3
3
3
3
3
3
3
3
3
3
3
3
3
3
3
3
3
3
3
2
2
3
2
3
3
3
3
3
3
3
3
3
3
3
3
3
3
3
3
3
3
2
3
3
2
2
3
3
3
3
2
2
2
3
3
3
3
3
3
3
3
3
3
3
3
3
3
3
3
3
3
3
2
2
3
3
3
3
3
3
3
3
3
3
3
3
3
3
3
3
2
2
3
3
3
3
3
3
3
3
3
3
3
3
3
3
3
2
2
3
3
3
3
3
3
3
3
3
3
3
3
3
3
3
3
3
3
3
3
3
2
2
2
3
3
3
3
3
3
3
3
3
3
3
3
3
3
3
3
3
3
3
3
3
3
2
3
3
2
2
3
3
3
3
3
3
3
2
2
3
2
2
3
3
3
3
3
3
3
3
2
3
3
3
2
2
2
3
3
3
3
3
3
3
3
3
3
3
3
2
2
3
3
2
3
3
3
3
3
3
3
3
3
3
3
3
3
3
3
3
3
3
3
3
3
3
3
3
3
3
3
3
2
3
2
2
3
3
3
3
3
3
2
3
3
3
2
2
3
3
3
3
3
3
3
3
3
3
3
3
3
2
2
3
3
3
3
3
3
2
3
2
3
3
3
3
2
3
3
3
3
3
3
3
2
3
3
3
3
3
3
3
3
3
3
3
3
3
3
3
3
3
2
2
3
3
3
3
3
3
3
3
3
3
3
3
3
3
2
2
2
2
3
3
3
3
3
3
3
3
3
3
3
3
2
2
3
3
2
3
3
3
3
3
3
3
3
3
3
3
3
2
3
2
2
3
3
3
3
3
3
3
3
3
3
2
3
3
2
3
3
3
3
3
3
3
3
3
3
3
3
3
3
3
3
3
2
2
3
3
3
3
3
3
3
3
3
3
3
3
3
3
3
3
3
3
3
3
3
3
3
3
3
3
3
3
2
2
3
3
3
3
3
3
3
3
3
3
3
3
3
3
3
3
3
3
3
3
3
3
3
3
3
3
3
3
3
3
3
3
3
2
2
2
2
3
3
3
3
3
3
3
2
2
3
2
2
3
3
3
3
3
3
2
3
3
3
3
3
3
3
2
2
3
3
2
3
3
3
3
3
2
2
3
3
3
3
3
3
3
3
2
3
3
3
3
3
3
3
3
3
3
2
2
2
2
3
3
3
3
3
3
3
2
3
3
3
3
3
3
3
3
2
2
3
3
3
3
2
2
3
3
3
3
3
3
3
3
3
3
3
3
3
3
3
3
2
3
2
2
3
3
2
3
3
3
3
3
3
2
2
3
3
3
3
3
3
3
3
3
3
3
2
2
3
3
3
3
2
2
3
3
3
3
3
3
3
3
3
3
3
3
3
3
3
3
2
2
3
3
2
2
2
2
3
3
3
3
3
3
2
2
2
3
2
3
3
3
3
3
3
3
3
3
3
3
3
3
3
2
3
3
3
3
3
3
3
3
3
3
3
3
3
2
2
2
2
3
3
3
3
3
3
3
3
3
3
3
3
3
3
3
3
3
3
3
3
3
3
3
2
2
3
3
3
3
3
3
3
3
3
3
3
3
3
3
3
3
3
3
3
2
3
2
2
3
3
3
3
3
3
3
3
3
3
3
3
3
3
3
3
2
3
2
3
3
3
3
3
3
3
3
3
3
3
3
3
3
3
3
2
2
3
2
3
2
3
3
3
3
3
3
3
3
3
3
3
3
3
3
3
3
2
2
2
3
3
3
3
3
2
2
3
3
2
3
3
2
2
2
3
2
3
3
3
3
3
2
3
3
2
3
3
3
3
3
3
3
3
3
3
3
2
2
3
3
3
3
3
3
3
2
2
3
3
3
3
2
3
3
3
3
2
3
3
3
3
3
3
3
3
3
3
3
3
3
3
3
2
2
2
3
3
3
3
3
3
3
3
3
3
3
2
2
3
2
2
3
3
2
3
3
3
3
3
2
2
3
3
3
3
3
3
3
3
3
3
3
3
3
3
3
3
3
3
3
2
2
3
3
3
3
3
3
3
3
2
3
3
3
3
2
2
3
3
3
3
3
3
3
3
3
3
2
2
2
3
3
3
3
3
3
3
3
3
3
3
2
2
3
3
3
3
3
3
3
3
3
3
3
3
2
2
3
3
3
2
3
2
3
3
3
3
2
3
2
2
3
3
3
3
3
3
3
3
3
3
3
3
2
3
2
2
3
3
3
3
3
3
2
2
3
3
3
3
3
3
3
3
3
3
3
3
3
3
3
2
2
2
3
3
3
3
3
3
3
3
3
2
2
3
3
3
3
3
2
3
3
3
3
3
3
3
3
3
3
3
3
2
3
3
3
3
3
3
3
3
3
3
2
3
3
3
3
3
3
3
3
3
3
3
3
3
3
3
3
2
3
3
3
3
3
2
3
3
3
3
3
3
3
2
3
3
3
3
3
3
3
3
3
3
3
3
3
3
3
3
3
3
3
3
3
3
3
3
3
2
3
3
2
3
3
2
3
3
3
3
3
3
2
3
3
3
3
3
3
3
3
3
3
3
3
3
3
2
2
3
2
3
2
3
3
3
3
3
3
3
3
3
3
3
3
2
2
3
3
3
3
3
3
3
3
3
3
3
3
3
3
3
3
3
3
3
3
3
2
2
2
2
3
3
3
3
3
3
3
3
3
3
3
3
3
2
3
3
2
3
3
3
3
3
3
3
3
3
3
2
3
3
3
3
3
3
3
3
3
3
2
3
2
2
3
3
3
3
3
3
3
2
2
3
3
3
2
2
3
3
3
2
2
3
3
3
3
3
3
3
3
3
3
3
3
3
3
3
3
3
3
3
3
3
3
3
2
2
3
3
3
3
3
2
3
3
3
3
3
2
2
2
3
3
3
3
3
3
3
3
3
3
3
2
3
2
2
2
3
3
3
3
3
3
3
3
3
3
2
2
3
3
3
2
3
3
3
3
3
2
3
3
3
3
3
3
2
3
3
3
3
3
3
3
3
3
3
3
3
3
3
3
2
2
3
3
2
2
2
3
2
2
3
3
3
3
3
3
3
3
3
3
3
3
2
2
3
3
3
3
3
3
3
3
3
2
3
3
3
3
3
3
3
3
3
2
2
2
3
3
3
3
3
3
3
2
3
3
3
3
3
3
2
3
3
3
3
3
3
3
2
3
2
3
3
3
3
3
3
3
3
3
3
3
2
2
2
3
3
2
2
3
3
3
3
2
2
3
2
3
3
3
3
3
3
2
2
3
3
3
3
3
3
3
3
2
3
3
3
3
3
3
3
3
2
2
3
3
2
2
2
3
3
3
3
3
2
3
3
3
3
3
3
3
3
3
3
3
3
3
2
2
2
2
3
3
3
3
3
3
2
3
3
2
2
3
3
3
3
3
3
3
3
3
3
3
3
3
3
3
3
3
3
3
3
3
3
3
3
3
3
3
3
3
3
3
3
3
2
3
3
3
3
3
3
3
3
3
3
3
3
3
3
3
3
3
2
2
3
3
3
3
3
3
3
3
2
2
3
3
3
3
3
3
3
3
3
3
3
3
3
3
3
3
3
3
3
3
3
3
3
3
3
3
3
2
2
3
3
3
3
2
3
2
3
3
3
3
3
3
3
3
3
2
3
3
3
3
3
3
3
3
3
2
2
3
3
3
3
3
3
3
2
2
3
3
3
3
3
3
3
3
3
3
3
3
2
2
3
3
3
3
3
3
3
3
3
3
3
3
3
3
3
3
3
3
3
2
3
3
3
3
3
3
3
3
2
3
3
3
3
2
3
3
3
3
3
2
3
3
3
3
3
2
2
2
3
3
3
3
3
3
2
3
3
3
3
3
3
3
3
3
3
3
3
3
3
3
3
3
3
3
3
3
3
3
3
2
3
3
3
3
3
3
3
3
3
3
3
3
2
3
2
2
3
3
3
3
3
3
3
3
3
3
3
3
3
3
3
2
3
3
3
2
2
3
3
3
2
3
3
3
3
3
2
2
3
3
3
3
3
2
3
3
3
3
3
3
3
3
3
3
2
3
3
3
3
3
3
3
3
2
2
3
3
3
3
3
3
3
3
3
3
3
3
3
3
2
3
3
3
3
3
3
3
3
3
3
3
3
2
2
2
3
3
3
3
3
3
3
3
3
3
3
3
2
3
3
3
3
3
2
3
3
3
3
2
3
3
3
3
3
3
3
3
3
2
3
3
3
3
3
3
3
3
2
3
3
3
3
3
2
3
3
3
3
3
3
3
3
3
3
3
3
3
3
3
2
3
3
3
3
3
3
3
3
3
3
3
3
3
2
2
3
3
3
3
3
3
3
2
3
2
2
2
2
3
3
3
3
3
3
3
3
3
3
2
2
2
2
3
3
3
3
3
3
3
3
2
3
3
3
3
3
3
3
3
3
3
3
3
3
3
3
3
3
3
3
3
3
3
3
3
3
3
3
2
3
3
3
3
3
3
3
2
3
3
3
3
3
3
3
3
3
3
3
3
3
3
3
3
3
3
3
3
3
3
2
2
3
3
3
3
3
2
3
3
2
3
3
3
SCALARS CharacterAngle float 1
LOOKUP_TABLE default
0.0
71.657174
73.046427
86.839357
88.602854
83.698675
86.042706
84.776724
83.742242
89.035334
88.645227
76.343962
78.985965
79.877631
82.563838
88.867967
87.433441
71.979781
73.446337
80.568859
75.141569
81.194604
86.199828
88.843434
88.842444
85.956081
80.742286
75.056223
80.385861
65.359347
64.949244
84.501832
81.778138
67.363460
69.871478
68.497515
70.533815
73.615394
75.509425
77.953803
80.722351
83.576847
86.213341
88.655626
89.789380
88.556045
87.532479
85.438105
82.955670
80.105238
82.185326
77.762650
77.667335
75.259530
73.689828
77.582873
75.537096
70.952509
88.993488
89.233903
88.041166
87.126012
64.336328
64.828630
66.831750
69.155925
70.590791
72.846499
75.420848
77.920467
80.280334
82.407200
84.650038
86.821045
88.149210
89.428826
89.403051
88.153781
86.778107
84.579667
82.315288
80.184229
77.830499
75.279788
72.882374
70.391918
68.559165
67.610588
64.951442
65.450033
85.569292
84.345421
75.998300
80.111527
85.213885
82.304386
71.434042
73.681877
76.137756
78.766266
80.094836
81.144516
82.811460
85.407875
87.361308
89.114421
89.648170
88.292079
86.004275
83.604261
81.541501
81.469053
86.100689
79.144741
76.624606
74.074489
72.165635
83.206911
80.172105
68.451296
67.170831
85.623363
88.029510
64.681007
65.418631
68.262994
70.303099
72.489400
74.576844
76.632601
78.867394
81.147831
83.323827
85.410009
87.325701
88.974131
89.767415
88.308371
86.097305
83.859808
81.566217
79.270357
76.959154
74.799752
72.697471
70.542621
68.361946
68.424753
69.743768
86.088741
84.900257
80.529307
82.948655
89.184417
89.578648
86.532843
88.074439
89.419677
67.722405
65.855312
87.742158
86.214399
87.968580
83.286940
80.924894
80.747566
83.800706
84.514889
82.920327
73.346204
79.162928
78.784997
81.105636
69.471547
71.181575
87.189049
86.355739
71.133439
70.254197
82.362189
84.659705
82.017024
85.117750
86.660346
88.285378
72.389849
77.247349
89.632734
88.232252
70.726819
75.095648
86.753407
85.362079
84.153876
81.692822
79.277949
75.929813
78.503192
86.440767
88.649363
71.840852
73.639228
80.140283
82.368362
70.638096
83.377563
84.727049
87.902505
88.527584
83.264951
80.494010
76.452538
70.124015
88.220089
87.131488
85.310041
83.888492
80.732455
72.684829
71.911156
79.322604
71.115698
74.275092
82.672705
84.536688
81.985144
84.242472
85.908293
86.993852
87.795278
88.477523
86.168825
89.637189
84.460630
84.460630
88.998121
87.856953
86.441759
84.497518
81.517507
86.533223
84.693724
67.671941
69.420177
88.081793
73.633193
78.744187
76.833432
76.833432
87.235521
82.841408
84.010832
85.481172
86.771892
87.944823
88.890896
89.440168
89.574888
87.671479
78.472776
75.754909
86.172889
84.801105
78.367251
73.208540
88.896309
87.509516
68.851765
71.944078
77.122905
76.240262
87.967441
86.529868
69.416982
67.760536
74.954407
77.300226
79.182628
81.458792
83.347218
85.021292
86.449813
87.554039
88.535528
89.415253
89.927278
89.173514
87.997588
86.810146
85.393347
83.688673
81.667543
79.305874
77.505212
75.134275
70.153031
69.969841
89.788563
87.476019
82.161540
82.161540
83.219897
86.104151
88.537691
89.453378
88.219272
86.993814
84.934800
81.229192
83.360259
78.194012
81.327219
79.079169
69.834562
70.667943
86.467906
88.290419
77.542682
82.282757
84.720619
86.852944
89.371070
88.837487
88.043823
86.681995
84.708880
82.671253
80.322114
87.660292
86.015780
70.689236
70.036009
88.564627
88.910496
81.153290
85.773820
87.638263
85.815592
86.281904
86.699864
87.084915
87.236803
87.837264
88.831634
89.476375
89.811834
89.145938
88.151498
87.361830
86.684181
86.008780
84.777941
86.646093
70.734654
69.846128
70.682531
87.624896
88.860262
81.393199
83.426030
84.961528
85.966918
86.779650
87.622727
88.435202
89.252069
89.818978
89.598410
89.146595
88.345989
87.567725
86.701740
85.886951
85.053794
83.828103
81.574680
84.132919
85.811790
71.068391
81.611397
77.966616
70.393910
72.672152
83.197488
86.534290
89.056807
88.736405
82.922675
81.346354
76.841496
74.608843
74.380718
77.101457
70.822514
70.864233
87.588361
88.796344
77.836783
83.112743
86.586113
89.072788
88.702830
86.509854
71.019986
75.221898
87.937353
88.785132
69.214563
71.829597
71.429446
78.879663
79.517757
82.746150
85.284478
87.598088
89.451435
89.132776
87.396110
85.204092
82.830326
78.441620
82.097611
69.415853
71.313428
89.173849
89.956229
69.618726
83.616845
75.339865
85.594416
87.523390
88.441810
89.279661
89.348117
87.760703
85.462720
86.723498
85.513087
79.935068
80.487941
79.066553
77.244139
77.136565
81.875152
75.774969
81.652102
86.674147
88.713197
89.982524
89.086003
88.308020
86.564279
81.949628
82.629399
86.844071
73.194179
77.035094
68.057002
72.856804
85.496365
88.506345
85.137697
83.755885
89.576705
85.339012
74.725771
82.773006
78.411320
80.377445
73.097134
73.304552
77.274385
81.538290
85.250142
86.754321
88.385287
89.465535
89.628374
89.031193
88.627409
87.750962
86.737411
85.223804
77.078235
72.615300
72.602787
87.405060
85.712646
82.859318
85.609380
80.143629
75.360812
72.778344
75.118060
69.504667
89.444472
88.808668
89.629715
89.848000
70.767612
76.839765
88.840599
88.894251
86.175664
81.711738
88.507350
87.634251
68.417371
88.977244
89.767482
83.521089
80.329950
84.272695
87.701028
89.824355
89.173340
87.696914
82.900642
85.791213
82.014573
79.686545
77.878251
75.122293
86.492470
89.426932
68.114510
70.537137
83.810020
85.826213
77.373337
81.496650
85.110966
88.748862
81.376556
82.926999
89.232259
88.748862
87.709293
84.585126
81.482170
78.621068
69.780299
71.319479
68.942134
72.322972
79.940141
76.918475
78.463747
80.346651
85.364682
87.271498
88.698360
89.528413
89.799791
88.897221
87.456481
85.253696
70.174212
73.947507
77.021746
86.576456
72.532619
83.362494
84.924240
80.364902
83.884383
86.248764
88.498362
89.727836
89.788169
88.569626
86.365099
84.034101
80.412178
73.521445
78.351709
71.408048
70.109024
78.576280
83.311508
85.877943
87.829897
89.278077
89.633744
88.064637
86.065075
83.482566
78.708336
71.479786
83.759376
86.039317
73.524752
78.390515
82.723451
84.908948
88.613741
87.286919
87.504167
89.114826
89.518057
87.718332
89.387333
88.219164
85.015215
82.780948
83.140634
80.639853
87.148063
88.304356
71.182988
72.859604
84.003813
81.380993
79.929928
85.109767
86.981153
88.252411
81.724883
80.106758
85.214141
77.126721
75.403676
81.950855
83.533255
84.123454
85.408886
85.830246
87.605452
88.891627
86.125728
80.504454
75.566543
76.667873
86.845816
88.174748
85.249670
83.732047
89.635831
89.452141
70.255128
74.578274
88.716389
88.996958
87.386874
89.137066
88.784236
88.812112
79.903181
82.236763
86.850156
85.028559
82.132644
77.894408
78.120970
89.900847
89.008718
87.086943
86.822035
88.792171
89.702447
89.869401
89.970058
81.031289
88.622129
89.170595
88.725658
88.731323
88.652383
88.606842
88.042564
79.490475
77.226180
89.062057
87.732350
68.877945
71.759620
72.316141
72.106931
83.360207
80.169626
82.246701
84.684303
86.253514
87.707877
88.905233
71.050535
74.093856
89.869816
68.948235
69.775092
88.383954
86.778388
84.898411
82.293736
80.133556
77.385967
71.278023
83.070584
80.811890
89.650382
88.670917
85.859714
87.658371
89.191367
69.231378
74.810301
89.596513
79.801133
73.687714
78.425258
76.980586
83.882570
85.792902
87.983680
72.469864
70.894610
79.479792
84.465105
87.274210
89.310205
88.794150
87.000926
84.350049
79.527447
72.557000
87.958820
83.582575
85.097725
78.948974
81.213190
89.168725
87.954853
89.028633
83.410751
80.614962
71.872458
70.158945
69.487607
74.510399
76.866400
89.073045
88.412263
83.700303
85.844164
87.266463
88.518294
74.121733
89.697473
89.209572
80.003518
82.264906
88.242066
87.104382
81.696550
84.629380
68.839355
71.715140
78.185788
76.204925
83.340845
86.379017
72.018710
70.585821
87.931595
88.838720
78.350417
81.166805
82.199072
79.991485
86.834066
88.458275
82.265266
84.682167
89.545172
89.408519
81.587435
88.351533
86.706771
75.603802
69.904970
75.878501
67.837182
71.103141
86.833274
87.946723
72.299337
78.305473
79.912972
81.507151
88.227974
84.215737
82.558799
70.884530
72.018597
85.269935
79.397355
82.565164
85.174886
85.926964
84.581776
87.829789
89.288204
89.308765
75.156225
77.414023
69.206213
72.912938
81.844879
83.564340
81.511890
89.631214
71.245990
70.717528
89.011314
88.952896
78.846785
82.400849
84.545670
81.891755
84.937167
87.844891
88.942510
87.022220
86.107055
84.305565
82.260454
78.973114
86.664364
83.466408
70.871055
71.458549
77.270729
79.398879
72.536792
70.355556
65.374149
66.917016
88.156228
75.961940
87.201146
81.960758
81.755948
79.860507
69.648992
74.210188
73.371913
77.417196
73.855594
76.769905
88.070319
88.973877
89.645407
89.866206
89.772686
89.534489
89.092397
88.097117
85.214052
87.401921
89.447331
89.198749
81.735479
73.338918
77.413595
83.919295
82.291601
86.980232
88.598673
89.332631
89.828203
89.743482
89.307726
88.600069
86.998199
82.333529
78.620405
74.828781
71.647234
71.260084
73.230041
80.074632
88.936340
89.609595
87.257327
87.438793
87.558111
87.836484
88.212751
88.245704
88.067254
88.269759
89.030519
89.710578
89.644403
88.896510
87.933668
89.876519
89.288979
86.589667
84.268087
86.822446
79.514561
83.857085
70.704814
71.416913
75.803574
81.875152
84.190624
85.955622
86.793110
87.527222
88.164971
88.517053
88.618123
88.531106
88.678158
89.247833
89.733827
89.647264
88.785847
87.900968
86.833400
84.885389
79.979286
73.312210
78.323765
68.820663
73.660988
84.600230
86.926809
89.071119
79.753048
83.293430
89.748756
88.854886
84.136349
86.919240
88.162119
86.317195
84.246006
81.414510
84.028922
85.639169
89.314528
68.652187
88.098510
73.377409
78.997185
76.268330
85.830729
87.394981
89.007097
82.329011
80.312005
89.967995
89.173003
89.589212
88.387567
87.958050
86.316563
82.021732
80.176746
79.236746
73.319170
69.692423
76.072316
70.325764
76.446831
72.204947
80.939174
81.171311
84.016971
85.920513
86.895255
87.790951
88.646338
89.924022
81.637282
76.472744
88.929113
88.074732
86.782789
84.703877
82.008745
83.694414
74.395650
70.148149
70.315997
87.929400
85.920185
89.452842
87.790860
86.083679
67.733040
69.478597
87.558244
88.385156
72.847524
79.475090
89.853806
70.119696
71.499510
72.719104
84.374621
71.810780
86.717717
88.557818
89.909146
78.081731
80.431690
71.856641
76.364059
78.874662
70.915364
78.324448
78.324448
83.289824
85.711620
87.346260
88.819361
89.685193
87.930757
86.057366
83.543967
78.814545
70.882548
69.719379
85.015389
81.067440
88.392276
83.848739
86.016170
88.019368
89.708486