# vtk DataFile Version 3.0
Dislocation network (FCC crystal) exported from OpenDiS
ASCII
DATASET UNSTRUCTURED_GRID
POINTS 4512 FLOAT
0.00000000e+00 0.00000000e+00 0.00000000e+00
1.95620000e+04 0.00000000e+00 0.00000000e+00
0.00000000e+00 1.95620000e+04 0.00000000e+00
0.00000000e+00 0.00000000e+00 1.95620000e+04
1.95620000e+04 1.95620000e+04 0.00000000e+00
1.95620000e+04 0.00000000e+00 1.95620000e+04
0.00000000e+00 1.95620000e+04 1.95620000e+04
1.95620000e+04 1.95620000e+04 1.95620000e+04
2.20595102e+03 6.37891179e+03 1.28198387e+04
2.21555496e+03 6.37119497e+03 1.28217258e+04
2.20595102e+03 6.37891179e+03 1.28198387e+04
2.26501931e+03 6.42427335e+03 1.28061320e+04
6.81481571e+03 7.19102879e+03 5.68320016e+03
6.94332207e+03 7.13479376e+03 5.61092883e+03
6.81481571e+03 7.19102879e+03 5.68320016e+03
6.67887364e+03 7.25475879e+03 5.75541222e+03
8.63716779e+03 5.86173238e+03 1.30423722e+04
8.66938290e+03 5.80859695e+03 1.30214519e+04
8.63716779e+03 5.86173238e+03 1.30423722e+04
8.55710373e+03 5.98791414e+03 1.30884899e+04
1.75888885e+04 8.40138173e+03 5.73112211e+03
1.74932521e+04 8.37674627e+03 5.66012120e+03
1.75888885e+04 8.40138173e+03 5.73112211e+03
1.76551658e+04 8.41664449e+03 5.78213666e+03
2.69449423e+03 6.08581372e+03 1.30152839e+04
2.57378472e+03 6.14821764e+03 1.29569783e+04
2.69449423e+03 6.08581372e+03 1.30152839e+04
2.81204660e+03 6.14684164e+03 1.29587594e+04
9.80502425e+03 1.81650739e+04 9.69809684e+03
9.91741599e+03 1.82079460e+04 9.76761656e+03
9.80502425e+03 1.81650739e+04 9.69809684e+03
9.72007349e+03 1.81291556e+04 9.64906442e+03
9.99506397e+03 5.28652109e+03 8.06401193e+03
9.93917002e+03 5.32317043e+03 8.15655522e+03
9.99506397e+03 5.28652109e+03 8.06401193e+03
1.00383822e+04 5.25323792e+03 7.98741054e+03
4.67263641e+03 1.35212865e+04 1.04110946e+04
4.71407551e+03 1.34818965e+04 1.04919237e+04
4.67263641e+03 1.35212865e+04 1.04110946e+04
4.60873014e+03 1.35775442e+04 1.02909305e+04
3.18303743e+03 6.37876918e+03 1.28196961e+04
3.17352392e+03 6.37111904e+03 1.28215595e+04
3.18303743e+03 6.37876918e+03 1.28196961e+04
3.12175904e+03 6.42556245e+03 1.28052110e+04
6.95574211e+03 4.20843750e+03 9.47920469e+03
7.06729457e+03 4.25394663e+03 9.54524803e+03
6.95574211e+03 4.20843750e+03 9.47920469e+03
6.87283656e+03 4.18304701e+03 9.42168963e+03
2.97317455e+03 6.52054346e+03 1.27516075e+04
3.12175904e+03 6.42556245e+03 1.28052110e+04
2.97317455e+03 6.52054346e+03 1.27516075e+04
2.82124649e+03 6.60604259e+03 1.26851786e+04
2.82124649e+03 6.60604259e+03 1.26851786e+04
2.69449423e+03 6.67195475e+03 1.26243385e+04
2.69449423e+03 6.67195475e+03 1.26243385e+04
2.55915675e+03 6.60194338e+03 1.26896646e+04
2.55915675e+03 6.60194338e+03 1.26896646e+04
2.40631937e+03 6.51566317e+03 1.27562218e+04
2.40631937e+03 6.51566317e+03 1.27562218e+04
2.26501931e+03 6.42427335e+03 1.28061320e+04
7.79336758e+03 4.21156772e+03 9.47633802e+03
7.87665827e+03 4.18614904e+03 9.41846602e+03
7.79336758e+03 4.21156772e+03 9.47633802e+03
7.68011650e+03 4.25740985e+03 9.54374697e+03
1.68050128e+04 1.72250057e+04 1.27670212e+04
1.67172960e+04 1.72530444e+04 1.28266993e+04
1.68050128e+04 1.72250057e+04 1.27670212e+04
1.67302137e+04 1.72021447e+04 1.27150831e+04
6.50371029e+03 1.64245018e+03 7.52386151e+03
6.43209261e+03 1.56894320e+03 7.37873686e+03
6.50371029e+03 1.64245018e+03 7.52386151e+03
6.57270909e+03 1.71900127e+03 7.66941142e+03
1.67302137e+04 1.72021447e+04 1.27150831e+04
1.66469529e+04 1.71655072e+04 1.26684598e+04
1.65636921e+04 1.71288697e+04 1.26218364e+04
1.66469529e+04 1.71655072e+04 1.26684598e+04
1.65636921e+04 1.71288697e+04 1.26218364e+04
1.64224550e+04 1.70592302e+04 1.25502389e+04
8.48662026e+03 6.08302913e+03 1.31131214e+04
8.47600982e+03 6.09569748e+03 1.31151793e+04
8.48662026e+03 6.08302913e+03 1.31131214e+04
8.55710373e+03 5.98791414e+03 1.30884899e+04
1.61787536e+04 1.69349144e+04 1.24308533e+04
1.63007369e+04 1.69972678e+04 1.24904831e+04
1.61787536e+04 1.69349144e+04 1.24308533e+04
1.60477736e+04 1.68679587e+04 1.23668290e+04
1.60477736e+04 1.68679587e+04 1.23668290e+04
1.59223633e+04 1.68041202e+04 1.23052571e+04
1.59223633e+04 1.68041202e+04 1.23052571e+04
1.58054007e+04 1.67446409e+04 1.22477738e+04
1.58054007e+04 1.67446409e+04 1.22477738e+04
1.56893372e+04 1.66857677e+04 1.21905835e+04
1.56893372e+04 1.66857677e+04 1.21905835e+04
1.55817364e+04 1.66313897e+04 1.21373608e+04
1.55817364e+04 1.66313897e+04 1.21373608e+04
1.54887686e+04 1.65843207e+04 1.20914619e+04
1.54887686e+04 1.65843207e+04 1.20914619e+04
1.54204365e+04 1.65492484e+04 1.20582022e+04
1.54204365e+04 1.65492484e+04 1.20582022e+04
1.53531376e+04 1.65816944e+04 1.20930552e+04
1.53531376e+04 1.65816944e+04 1.20930552e+04
1.52604787e+04 1.66264116e+04 1.21409969e+04
1.52604787e+04 1.66264116e+04 1.21409969e+04
1.51528393e+04 1.66784773e+04 1.21965706e+04
1.51528393e+04 1.66784773e+04 1.21965706e+04
1.50319570e+04 1.67376148e+04 1.22583154e+04
1.50319570e+04 1.67376148e+04 1.22583154e+04
1.49038544e+04 1.68007519e+04 1.23232809e+04
5.46693566e+03 9.95918373e+03 1.25838645e+04
5.58844053e+03 9.88419765e+03 1.26303833e+04
5.46693566e+03 9.95918373e+03 1.25838645e+04
5.33619748e+03 1.00492151e+04 1.25431577e+04
1.47836530e+04 1.68604937e+04 1.23837404e+04
1.49038544e+04 1.68007519e+04 1.23232809e+04
1.47836530e+04 1.68604937e+04 1.23837404e+04
1.46678701e+04 1.69185468e+04 1.24414703e+04
1.46678701e+04 1.69185468e+04 1.24414703e+04
1.45862109e+04 1.69596560e+04 1.24820202e+04
1.32287713e+04 7.92663377e+03 4.86338769e+03
1.32971428e+04 7.88479665e+03 4.88992209e+03
1.32287713e+04 7.92663377e+03 4.86338769e+03
1.31410662e+04 7.98330508e+03 4.83235384e+03
5.33619748e+03 1.00492151e+04 1.25431577e+04
5.26654748e+03 1.01045834e+04 1.25288760e+04
5.05469585e+03 4.82760293e+03 1.20378511e+04
5.12379141e+03 4.68545056e+03 1.21109079e+04
5.05469585e+03 4.82760293e+03 1.20378511e+04
5.02320511e+03 4.88970388e+03 1.20072409e+04
9.39783590e+03 1.56478498e+04 3.50252370e+03
9.42610655e+03 1.57010043e+04 3.47763979e+03
9.39783590e+03 1.56478498e+04 3.50252370e+03
9.34324507e+03 1.55415632e+04 3.55421939e+03
1.40358603e+04 1.72160615e+04 1.27759654e+04
1.40976617e+04 1.72348350e+04 1.28189934e+04
1.40358603e+04 1.72160615e+04 1.27759654e+04
1.40942280e+04 1.71987418e+04 1.27349173e+04
1.40976617e+04 1.72348350e+04 1.28189934e+04
1.42133049e+04 1.72849579e+04 1.28845137e+04
1.43182404e+04 1.73366556e+04 1.29377514e+04
1.42133049e+04 1.72849579e+04 1.28845137e+04
1.43182404e+04 1.73366556e+04 1.29377514e+04
1.44536247e+04 1.74062251e+04 1.30035662e+04
1.44536247e+04 1.74062251e+04 1.30035662e+04
1.46087799e+04 1.74860047e+04 1.30789418e+04
1.46087799e+04 1.74860047e+04 1.30789418e+04
1.47606564e+04 1.75638211e+04 1.31530019e+04
1.47606564e+04 1.75638211e+04 1.31530019e+04
1.48917391e+04 1.76300861e+04 1.32178197e+04
1.48917391e+04 1.76300861e+04 1.32178197e+04
1.49993746e+04 1.76839957e+04 1.32715455e+04
1.49993746e+04 1.76839957e+04 1.32715455e+04
1.51003116e+04 1.77343455e+04 1.33221327e+04
1.51003116e+04 1.77343455e+04 1.33221327e+04
1.51978380e+04 1.77828082e+04 1.33711964e+04
1.51978380e+04 1.77828082e+04 1.33711964e+04
1.52850895e+04 1.78261540e+04 1.34151021e+04
1.52850895e+04 1.78261540e+04 1.34151021e+04
1.53591934e+04 1.78630356e+04 1.34523244e+04
1.53591934e+04 1.78630356e+04 1.34523244e+04
1.54204365e+04 1.78936709e+04 1.34829323e+04
1.54204365e+04 1.78936709e+04 1.34829323e+04
1.54737873e+04 1.78672550e+04 1.34559975e+04
1.54737873e+04 1.78672550e+04 1.34559975e+04
1.55498681e+04 1.78296815e+04 1.34174902e+04
1.55498681e+04 1.78296815e+04 1.34174902e+04
1.56387841e+04 1.77858483e+04 1.33724074e+04
1.56387841e+04 1.77858483e+04 1.33724074e+04
1.57365126e+04 1.77377152e+04 1.33228120e+04
1.57365126e+04 1.77377152e+04 1.33228120e+04
1.58357835e+04 1.76885460e+04 1.32727102e+04
1.58357835e+04 1.76885460e+04 1.32727102e+04
1.59421475e+04 1.76356923e+04 1.32192000e+04
1.59421475e+04 1.76356923e+04 1.32192000e+04
1.60721248e+04 1.75707508e+04 1.31541641e+04
1.60721248e+04 1.75707508e+04 1.31541641e+04
1.62221892e+04 1.74947485e+04 1.30801020e+04
1.62221892e+04 1.74947485e+04 1.30801020e+04
1.63730154e+04 1.74182170e+04 1.30058074e+04
1.63730154e+04 1.74182170e+04 1.30058074e+04
1.65079678e+04 1.73502938e+04 1.29387782e+04
1.65079678e+04 1.73502938e+04 1.29387782e+04
1.65902370e+04 1.73103187e+04 1.28964840e+04
1.67172960e+04 1.72530444e+04 1.28266993e+04
1.65902370e+04 1.73103187e+04 1.28964840e+04
9.52768905e+03 1.58658571e+04 3.41436954e+03
9.51993707e+03 1.58557552e+04 3.41671948e+03
9.52768905e+03 1.58658571e+04 3.41436954e+03
9.58410065e+03 1.57829106e+04 3.38783469e+03
2.03633849e+03 1.15648987e+04 3.37194244e+03
2.08640244e+03 1.16112428e+04 3.27553436e+03
2.03633849e+03 1.15648987e+04 3.37194244e+03
1.98756192e+03 1.15220980e+04 3.46351967e+03
1.49711638e+04 1.34196012e+04 1.11044000e+04
1.48638092e+04 1.34854905e+04 1.10629347e+04
1.49711638e+04 1.34196012e+04 1.11044000e+04
1.50727974e+04 1.33627216e+04 1.11491540e+04
4.39867118e+03 1.37019787e+04 1.10595002e+04
4.34656983e+03 1.37432386e+04 1.09661389e+04
4.39867118e+03 1.37019787e+04 1.10595002e+04
4.48239482e+03 1.36586790e+04 1.11865235e+04
9.28195142e+03 1.54178730e+04 3.61661594e+03
9.34324507e+03 1.55415632e+04 3.55421939e+03
9.28195142e+03 1.54178730e+04 3.61661594e+03
9.20805147e+03 1.52686406e+04 3.69194840e+03
9.20805147e+03 1.52686406e+04 3.69194840e+03
9.13643322e+03 1.51242256e+04 3.76474517e+03
9.13643322e+03 1.51242256e+04 3.76474517e+03
9.07566987e+03 1.50034023e+04 3.82480515e+03
9.07566987e+03 1.50034023e+04 3.82480515e+03
9.04372129e+03 1.49403956e+04 3.85586321e+03
9.01130688e+03 1.48767256e+04 3.88711883e+03
9.04372129e+03 1.49403956e+04 3.85586321e+03
9.01130688e+03 1.48767256e+04 3.88711883e+03
8.95568398e+03 1.47682686e+04 3.93995293e+03
8.95568398e+03 1.47682686e+04 3.93995293e+03
8.89880912e+03 1.46582823e+04 3.99306437e+03
8.89880912e+03 1.46582823e+04 3.99306437e+03
8.84753241e+03 1.45590082e+04 4.04106178e+03
8.84753241e+03 1.45590082e+04 4.04106178e+03
[...]
CELL_DATA 2253
SCALARS SlipSystemID int 1
LOOKUP_TABLE default
0
10
7
1
1
11
11
4
4
10
7
4
4
9
9
6
6
7
10
4
4
10
10
10
7
7
7
1
1
1
4
12
12
4
4
4
11
11
4
4
4
4
4
4
4
4
1
1
1
1
1
10
10
1
1
1
10
10
10
2
2
5
5
4
1
4
4
4
4
4
4
4
4
4
4
4
4
1
1
1
1
1
1
1
1
1
1
1
1
5
11
3
3
10
10
6
6
5
5
5
5
5
5
5
5
5
5
11
11
11
11
11
9
9
11
11
11
11
11
11
11
11
4
4
11
5
5
5
5
5
5
5
5
5
5
5
5
11
11
11
11
11
11
11
11
11
11
11
8
2
10
10
2
2
9
9
12
2
2
5
5
8
8
8
4
4
7
7
1
1
10
10
2
8
6
6
11
11
8
8
2
2
2
2
11
11
2
8
8
8
8
8
8
8
8
7
7
11
11
6
9
11
8
8
11
11
6
6
6
11
11
5
5
8
8
9
9
9
8
8
4
4
7
7
9
6
4
4
6
6
6
6
6
6
5
5
9
7
7
9
9
9
9
9
2
2
3
12
12
7
7
7
7
11
11
3
3
3
3
3
3
12
12
12
7
7
12
12
10
10
9
9
11
11
1
1
12
12
3
12
1
1
3
3
3
3
3
3
3
3
3
12
12
12
12
12
12
12
12
12
12
10
7
5
5
8
8
10
10
10
10
7
7
7
7
12
12
10
10
7
10
3
3
10
10
10
10
10
10
7
7
7
7
7
10
10
1
4
12
12
3
11
11
4
4
4
4
4
4
4
4
1
1
1
1
1
1
1
1
2
10
10
4
1
6
6
4
4
4
4
4
4
4
4
4
1
1
1
1
1
1
1
1
1
2
2
5
10
2
5
5
5
11
2
5
5
7
7
11
5
9
9
5
5
5
5
11
11
6
6
9
9
8
2
7
7
2
2
2
2
2
8
8
8
8
8
7
2
8
12
12
6
9
9
2
2
2
2
8
8
8
3
3
2
2
11
6
9
3
3
6
6
6
6
9
9
9
9
11
11
9
6
2
2
6
6
3
3
6
1
12
12
7
7
5
5
12
3
3
3
3
3
3
3
12
12
12
12
12
12
7
7
3
3
3
3
3
4
4
5
5
3
12
6
6
5
5
11
11
12
12
2
2
10
7
6
6
9
9
10
10
10
10
7
7
9
9
3
3
7
7
1
1
7
10
8
8
10
10
10
10
1
7
10
7
7
7
7
4
1
8
8
1
1
10
4
4
4
4
1
1
1
5
5
1
3
4
5
5
4
4
4
4
4
5
5
4
1
3
3
1
1
1
1
1
3
3
5
5
5
5
5
5
11
11
11
11
11
11
5
3
3
10
10
5
5
9
9
5
5
11
11
6
6
11
10
10
8
8
8
11
2
11
11
8
2
10
5
5
12
12
8
2
12
12
2
2
2
8
8
8
8
8
6
9
11
11
5
5
6
6
8
9
6
5
5
9
9
5
5
5
5
6
3
3
6
6
6
6
6
6
2
2
9
6
9
9
9
9
9
2
2
2
7
7
12
3
10
3
3
3
3
3
3
7
7
12
1
1
12
12
12
12
12
12
12
2
2
2
2
1
1
4
4
3
3
3
4
12
1
1
10
10
12
7
7
11
10
7
10
10
10
10
7
7
7
7
7
10
12
9
9
7
7
10
10
7
10
4
1
4
1
4
9
9
4
4
4
4
1
1
4
1
8
8
1
1
1
1
9
9
1
1
10
4
1
9
9
4
4
10
10
4
4
9
9
4
1
3
1
1
9
9
9
9
10
10
5
11
11
11
5
5
2
2
10
10
11
11
2
9
5
11
11
5
5
5
11
11
7
5
11
12
12
11
11
7
11
11
6
2
8
12
12
2
2
2
1
7
8
6
6
8
8
8
8
11
11
2
8
7
9
9
9
9
8
2
8
8
12
12
12
12
6
11
11
6
6
6
6
9
9
9
9
5
5
3
3
4
6
9
10
4
4
6
6
6
6
9
9
9
4
8
8
12
3
10
10
1
1
6
6
3
3
3
3
3
3
3
12
12
12
12
12
12
2
2
12
12
3
7
7
3
12
10
10
3
3
3
3
3
3
3
3
3
12
12
12
12
12
12
12
12
12
12
7
5
10
10
10
4
4
10
7
6
6
7
7
7
2
6
6
10
12
10
10
8
10
10
10
10
7
7
10
7
10
10
7
7
8
7
7
7
7
4
11
1
1
4
4
4
4
4
3
3
4
1
4
4
1
1
1
1
1
6
6
4
1
11
11
4
4
3
3
1
1
4
4
3
3
1
1
1
1
7
7
5
11
5
10
5
12
5
11
5
11
11
8
8
5
5
5
5
5
5
5
11
11
11
11
11
2
12
3
2
2
2
2
8
8
8
3
8
3
8
8
8
3
2
8
2
2
2
2
2
2
2
2
8
8
8
8
8
8
9
9
4
9
6
6
6
6
6
6
6
9
9
9
11
11
6
10
9
9
5
5
6
6
9
7
7
4
4
6
6
9
9
1
1
12
3
2
3
3
3
3
12
12
12
12
2
12
3
6
3
3
6
3
3
12
11
11
12
12
7
7
10
7
2
2
10
10
10
10
7
7
7
7
8
10
7
9
7
7
6
10
7
7
7
3
3
4
1
12
4
4
4
4
1
1
1
1
3
3
4
1
7
9
9
1
1
7
9
9
1
1
10
10
11
10
10
5
5
5
12
12
5
11
1
1
5
10
5
5
5
5
10
11
11
11
7
8
2
8
6
2
2
2
8
11
11
8
8
8
8
1
4
4
2
3
3
2
2
2
9
9
2
2
2
8
3
8
8
8
8
8
7
6
7
7
6
6
6
6
9
9
9
1
10
10
9
6
4
6
6
6
6
7
4
3
8
3
3
3
1
1
12
3
12
12
12
12
12
12
1
1
3
12
1
1
3
6
6
4
3
8
8
4
4
4
6
12
12
1
10
10
10
10
12
10
7
5
7
7
7
1
1
3
3
9
10
10
3
3
3
3
7
7
4
4
9
4
4
4
4
4
8
8
4
10
10
8
4
2
2
4
4
4
4
4
10
10
1
4
1
1
2
2
5
11
4
5
5
5
5
5
6
11
11
11
11
11
11
11
5
5
5
4
5
5
5
5
5
5
7
7
11
10
10
11
2
11
12
12
4
4
2
8
9
2
2
2
2
2
8
8
8
8
8
5
8
6
6
5
5
2
8
12
12
8
8
8
8
6
9
6
6
6
6
6
9
9
9
9
9
9
6
3
3
3
7
7
6
6
6
4
4
6
6
1
1
7
7
6
6
3
3
3
6
3
3
3
12
12
12
12
8
8
8
8
12
3
2
2
3
3
3
3
3
12
12
12
12
10
10
9
9
10
9
1
1
1
1
10
8
7
7
7
7
3
3
9
10
7
2
9
10
10
10
10
8
8
7
8
7
7
8
8
3
3
1
4
3
4
4
4
1
11
11
10
10
4
1
2
2
2
2
2
4
4
4
11
11
9
1
1
6
6
5
11
9
9
9
9
5
5
4
4
5
5
11
11
11
11
11
1
1
9
9
4
11
5
5
5
5
5
5
5
5
5
5
5
11
4
4
11
11
11
11
11
7
7
2
2
2
2
8
8
8
8
7
2
8
11
2
2
7
8
8
8
8
8
5
12
12
6
9
5
5
5
5
5
1
1
1
1
6
9
9
3
12
6
6
3
10
5
3
3
12
12
3
10
3
12
3
3
3
3
3
12
12
12
12
12
12
7
4
9
10
7
3
10
9
10
7
7
7
7
4
1
4
4
4
4
1
1
1
1
1
12
5
4
3
1
1
1
12
7
5
11
7
4
4
4
10
11
11
10
11
5
5
5
5
11
11
7
7
11
11
11
11
8
2
7
2
2
2
2
8
2
8
9
2
2
2
2
2
2
8
8
8
8
8
6
9
8
8
6
6
6
9
9
9
8
8
1
9
6
6
6
6
6
6
1
9
9
9
9
9
12
7
11
5
12
12
12
12
10
10
12
3
3
3
3
12
12
12
12
12
10
10
10
10
10
10
7
11
11
10
10
9
10
7
11
11
12
6
6
4
4
4
4
1
1
1
1
2
2
7
7
4
4
1
1
1
1
3
11
7
5
5
7
12
5
5
5
5
5
11
11
11
11
2
2
2
2
2
2
8
8
8
4
4
2
8
2
2
2
8
8
12
6
9
6
6
6
6
9
9
9
9
9
6
11
11
6
11
11
11
11
12
3
3
5
4
4
3
12
12
12
12
12
10
10
3
12
12
3
3
5
12
5
7
7
7
7
10
10
10
10
10
7
1
5
12
12
10
10
10
7
7
7
7
1
4
4
4
1
1
1
8
8
1
1
1
1
8
8
7
5
5
5
5
5
11
11
11
11
4
2
2
5
5
5
5
11
11
11
11
1
2
9
2
2
2
2
2
2
2
2
8
8
8
3
2
2
2
3
2
8
8
8
8
8
8
8
9
6
6
6
9
9
8
6
9
10
6
11
11
9
9
12
3
3
12
4
3
3
3
3
3
3
12
12
12
12
12
7
10
10
10
2
7
7
7
7
5
5
7
10
10
10
10
10
10
7
12
7
7
7
7
7
7
1
8
4
4
4
4
4
1
1
1
1
1
1
1
1
1
4
9
4
4
4
4
1
1
1
1
1
1
8
1
8
11
5
5
11
11
11
11
5
11
5
11
9
11
5
11
11
11
11
11
2
2
2
2
2
8
8
8
8
8
2
2
8
10
1
9
10
3
6
9
6
9
12
12
6
6
6
9
9
9
9
3
12
3
3
3
3
12
12
12
3
3
10
12
12
7
2
10
10
10
7
7
5
11
10
10
10
10
10
10
10
5
7
3
7
7
7
7
7
9
4
4
4
4
4
1
1
1
1
1
9
1
4
1
4
10
5
5
4
4
3
5
5
5
11
11
11
4
4
6
4
1
8
4
9
5
6
5
5
3
12
4
10
10
1
10
7
2
1
11
6
9
5
5
6
3
8
8
7
12
12
1
8
6
9
11
2
11
6
8
6
7
11
9
3
2
6
6
13
8
6
11
7
2
2
10
8
2
4
4
SCALARS DislocationType int 1
LOOKUP_TABLE default
0
2
2
3
3
3
3
2
2
3
3
3
3
3
3
3
3
2
2
3
3
3
3
3
3
3
3
3
3
3
3
3
3
3
3
3
2
2
3
3
3
3
3
3
3
3
3
3
3
3
3
3
3
3
3
3
3
3
2
3
3
3
3
3
3
3
3
3
3
3
3
3
3
3
3
3
3
3
3
3
3
3
3
3
3
3
3
3
3
2
3
3
3
3
3
3
3
3
3
3
3
3
3
3
3
3
3
3
3
3
3
3
3
3
3
3
3
3
3
3
3
3
3
3
2
3
3
3
3
3
3
3
3
3
3
3
3
3
3
3
3
3
3
3
3
3
3
3
2
2
3
3
3
3
3
3
3
3
3
3
3
3
3
3
3
3
3
3
3
3
3
3
2
2
3
3
3
3
2
2
3
3
3
3
2
2
3
3
3
3
3
3
3
3
3
3
3
3
3
2
3
3
2
2
3
3
3
3
3
2
2
3
3
3
3
3
3
3
2
2
3
2
3
3
2
3
3
3
3
3
3
3
3
3
2
2
3
2
3
3
3
3
3
3
3
3
3
3
3
2
3
3
3
2
3
3
3
3
3
3
3
3
3
3
3
3
3
3
3
2
3
3
3
3
2
2
3
3
3
3
3
3
3
3
3
3
3
3
3
3
3
3
3
3
3
3
3
3
3
3
3
2
2
3
3
2
2
3
3
3
3
3
3
3
3
3
3
3
3
2
2
3
3
3
3
3
3
3
3
3
3
3
3
3
3
3
2
2
3
3
3
3
3
3
3
3
3
3
3
3
3
3
3
3
3
3
3
3
2
3
3
3
2
2
3
3
2
2
3
3
3
3
3
3
3
3
3
3
3
3
3
3
2
2
3
3
2
2
3
3
3
3
3
2
3
3
3
3
2
2
3
3
3
3
3
3
3
3
3
3
3
3
2
2
2
3
3
3
3
3
3
3
3
3
3
3
3
2
2
3
3
2
3
3
3
3
3
3
3
3
3
3
3
2
2
3
3
2
3
3
3
3
3
3
3
3
3
3
2
3
2
3
3
3
3
3
3
3
3
3
2
3
2
2
3
2
2
2
3
3
3
3
3
3
3
3
3
3
3
3
3
3
2
3
3
3
3
3
3
3
3
3
3
3
3
2
2
3
3
3
3
3
3
2
2
3
3
2
3
3
3
3
3
3
3
3
3
3
3
3
3
3
3
2
2
3
3
3
3
3
3
3
3
3
3
3
3
3
2
2
3
3
3
3
3
3
3
3
3
3
3
3
3
3
3
3
2
2
2
3
3
3
3
3
2
3
3
3
3
3
3
3
3
3
3
2
3
2
3
3
3
3
3
3
3
3
3
3
2
2
3
3
2
3
3
3
3
3
3
3
3
3
3
3
3
3
3
3
3
2
3
3
2
2
3
3
3
3
3
3
3
2
2
3
3
3
3
3
3
3
3
2
2
2
3
3
3
3
3
3
3
3
3
3
3
3
3
3
3
3
3
3
2
3
3
3
3
3
3
3
3
3
3
3
3
3
3
3
3
3
3
3
3
3
3
2
3
3
3
3
3
3
3
3
2
3
3
3
3
3
3
3
3
3
3
2
3
3
3
3
2
2
3
3
3
3
3
3
3
3
3
2
2
3
3
3
3
2
2
3
3
3
3
3
3
3
3
2
2
3
3
3
3
3
3
3
3
3
3
2
2
3
3
3
3
3
3
3
3
2
2
3
3
3
3
3
3
3
3
3
3
3
3
3
2
2
3
3
3
3
3
3
3
3
2
3
3
3
3
3
3
2
3
3
3
2
3
2
2
3
3
2
3
3
3
3
3
3
3
2
3
2
3
3
3
3
3
3
3
3
3
3
3
3
2
3
3
3
3
3
2
2
3
3
3
3
3
3
3
3
3
3
3
3
3
3
3
3
2
2
3
2
3
3
3
3
3
3
3
3
3
2
3
3
3
3
3
3
3
3
3
3
3
3
3
3
3
3
2
2
3
3
3
3
3
3
3
3
3
3
3
2
3
3
3
2
3
3
3
3
3
3
3
3
3
3
3
3
3
3
3
3
3
3
3
3
3
3
3
3
3
3
2
3
3
3
3
3
3
3
3
3
3
3
3
3
3
3
3
3
3
3
3
3
3
2
3
3
3
3
3
3
3
3
3
3
3
3
3
3
3
3
2
3
2
3
2
3
3
3
3
3
3
3
3
3
3
3
3
3
3
2
2
3
2
2
2
3
3
3
3
3
3
3
3
3
3
3
3
3
3
3
3
3
3
3
2
2
3
3
3
3
3
3
3
3
3
3
2
3
3
3
3
3
3
3
2
2
2
3
3
3
3
3
3
3
2
3
3
2
3
3
3
3
3
3
3
3
3
3
3
2
3
3
3
3
3
3
2
2
3
3
3
3
3
3
3
3
2
3
3
3
3
3
3
3
3
3
3
3
3
3
3
3
2
3
2
2
2
3
3
3
3
3
3
3
3
3
3
3
3
3
3
3
3
2
3
3
3
3
3
3
3
3
3
3
3
3
3
3
3
3
3
3
3
3
3
3
3
3
3
2
3
3
3
3
3
3
3
3
3
2
3
3
3
3
2
2
3
3
3
3
3
3
3
3
3
3
3
2
2
3
3
3
3
3
3
3
3
3
3
2
2
3
3
3
3
3
3
3
3
3
3
3
2
2
3
3
3
3
3
3
3
3
3
3
3
3
2
3
3
3
3
3
3
3
3
3
3
3
2
3
2
3
3
3
2
3
3
3
3
2
2
3
3
3
3
3
3
3
3
3
3
3
3
3
3
3
2
2
3
3
3
3
3
3
3
3
3
3
3
3
3
3
3
3
3
3
2
2
3
3
3
3
3
3
3
2
3
3
2
3
2
3
3
3
3
3
3
2
2
3
3
3
3
3
3
3
3
3
3
3
3
3
2
2
2
2
3
3
3
3
3
2
3
3
3
3
3
2
3
3
3
2
3
3
3
3
2
3
3
3
3
3
3
2
3
3
3
3
3
3
3
3
3
3
3
3
2
2
3
2
3
3
3
3
3
3
3
3
3
3
2
3
3
3
3
3
3
3
2
2
3
3
3
3
3
2
2
2
3
3
3
3
3
3
3
3
3
3
3
3
2
3
2
3
3
2
3
3
3
3
3
3
3
3
3
3
3
3
3
3
3
3
3
3
2
2
3
3
3
3
3
3
3
3
3
3
3
3
2
3
3
2
3
3
3
3
3
3
3
2
2
2
3
3
3
3
3
3
3
3
3
3
3
3
2
2
3
3
2
3
3
3
3
3
3
3
3
3
3
3
3
3
3
3
3
3
3
3
3
3
3
3
3
3
3
3
2
3
2
3
3
3
3
3
3
3
3
3
3
3
3
3
3
3
3
3
3
3
3
2
3
3
2
3
3
3
3
3
3
3
2
3
3
3
3
3
3
3
3
3
3
3
3
3
2
2
3
3
2
2
3
3
3
3
3
3
3
3
3
2
2
3
3
3
2
3
3
3
3
3
3
3
3
3
2
3
2
3
3
3
3
3
3
3
3
3
3
3
3
3
3
3
3
3
3
2
3
3
3
3
2
2
3
3
3
3
3
3
3
3
3
3
3
3
3
3
3
3
3
2
3
3
3
3
3
3
3
3
3
2
2
3
3
3
3
3
3
3
3
3
3
3
3
3
3
2
3
3
3
3
3
3
2
2
3
3
3
2
2
3
3
3
2
2
3
3
3
3
3
3
2
2
3
3
3
3
3
3
3
3
3
3
3
2
3
3
3
3
3
2
3
3
3
3
3
3
2
2
3
3
3
3
3
3
3
3
2
3
3
3
3
3
3
3
2
3
2
2
2
3
2
3
3
3
3
3
2
3
3
3
3
3
3
3
3
3
3
3
3
2
2
2
3
3
3
3
3
3
3
3
2
3
3
3
3
3
3
3
3
3
3
2
3
3
3
3
3
3
3
3
3
2
3
2
3
2
3
3
3
3
3
3
3
3
3
3
3
3
3
3
2
3
3
3
3
3
3
3
3
3
3
3
3
3
3
3
3
2
2
3
3
3
3
3
3
3
2
3
3
3
3
2
3
3
3
3
3
3
3
3
3
3
3
3
2
2
3
3
3
3
3
3
3
3
3
2
2
3
3
3
3
2
3
3
3
3
3
3
3
3
3
2
3
3
3
3
3
3
3
3
3
2
3
3
3
3
3
3
3
3
2
3
3
3
3
3
3
3
3
3
2
3
3
3
2
2
2
3
2
2
3
3
3
3
3
3
3
3
3
3
3
3
2
3
3
3
3
3
3
3
3
3
2
3
3
3
3
3
3
3
3
3
3
3
3
3
3
3
3
3
3
2
3
3
3
3
3
2
3
3
3
3
3
3
2
3
3
3
3
3
3
3
3
3
3
3
3
3
3
3
3
3
3
3
3
3
3
3
2
3
2
2
3
3
3
3
3
3
3
3
3
3
2
3
3
3
3
3
3
3
3
3
3
2
3
3
3
3
3
3
3
2
3
3
3
3
3
3
3
2
3
3
3
3
2
3
3
3
3
3
3
3
3
3
3
2
3
3
3
3
3
3
3
3
3
3
3
3
3
3
3
3
3
3
3
3
3
3
3
3
3
3
3
3
3
3
3
3
3
3
3
3
3
3
3
3
3
3
3
3
3
3
3
3
3
3
3
3
3
3
3
3
3
3
3
3
3
3
3
3
2
2
2
3
3
3
3
3
3
3
3
2
3
3
3
3
3
3
3
3
2
3
3
3
3
3
2
3
3
3
3
3
3
3
3
3
3
3
3
3
3
3
2
3
3
3
3
3
3
3
3
3
3
3
3
3
3
3
3
3
3
3
3
3
3
3
3
3
3
3
3
3
2
3
3
3
3
3
3
3
3
2
3
3
3
3
3
3
3
3
2
3
3
3
3
3
3
3
3
3
3
3
3
3
3
3
3
3
3
2
3
3
3
3
3
3
3
3
3
3
3
3
3
3
3
3
3
3
3
3
3
3
3
2
3
3
3
3
3
3
3
3
3
3
3
3
2
3
2
3
3
3
3
3
3
3
3
3
3
2
3
3
3
3
3
3
3
3
3
2
3
SCALARS CharacterAngle float 1
LOOKUP_TABLE default
0.0
70.686506
72.807758
85.879103
87.936892
83.003356
81.171190
74.362797
72.701402
88.877018
88.732910
82.205351
84.906849
83.153755
85.674675
89.161443
87.895408
70.649524
73.069773
83.933563
77.389769
80.866186
85.855037
88.676535
88.854963
85.739067
80.380633
77.321889
83.725705
78.236298
77.350365
89.569362
88.284073
86.038903
86.038903
89.541404
68.705429
74.446922
89.261430
89.259696
89.402177
89.435480
89.520352
89.644857
89.583661
89.122604
88.817022
88.848997
88.922054
89.286534
89.527858
82.296529
77.711700
89.802496
89.907656
89.773434
82.636992
80.420589
71.192235
89.078273
89.530972
87.893280
89.099015
77.233182
76.791035
85.604219
89.514560
89.082666
89.061134
89.181903
89.634805
89.943471
89.922146
89.796169
89.787698
89.847977
89.985252
89.678247
89.593979
89.535148
89.505025
89.689228
89.795850
89.975959
89.572323
89.509394
89.780882
89.067619
86.746414
72.842438
78.252339
88.723858
87.842390
82.516932
86.059602
86.164400
79.588797
89.705046
89.682463
89.730050
89.807426
89.532473
89.397968
89.149473
88.868251
88.907416
88.901875
89.236617
89.825986
89.960226
89.987672
89.819278
81.555353
84.582051
89.322129
89.130459
89.116389
89.170736
83.509944
79.903050
87.501011
85.192928
84.806689
88.006377
73.325281
78.311144
87.484102
89.419540
89.764645
89.755217
89.798487
89.816869
89.473359
89.130521
88.939768
88.916116
88.940997
89.272527
89.741752
89.931286
89.845355
89.522252
89.363465
89.135235
89.095920
89.178434
89.890394
87.536754
69.030826
69.853941
86.156579
84.961663
81.038315
82.801940
89.609299
89.807321
89.878966
88.154040
89.743607
86.067734
80.330339
88.479076
84.517958
86.812713
83.591378
81.402386
86.527835
88.151590
85.263677
83.713607
80.016498
81.842026
69.372390
71.282022
88.888617
88.555298
82.645199
82.645199
70.415840
72.904571
82.754319
85.447783
86.899291
88.395184
70.399961
74.837920
89.941406
88.612939
79.642112
79.642112
87.440141
86.124515
84.907426
83.057022
79.965109
82.738645
84.832021
85.835576
88.596289
73.050212
75.929153
79.686420
71.049203
67.434406
82.981103
81.686068
87.484479
89.023887
89.173416
67.689863
73.361881
81.105838
75.720779
79.410578
79.410578
89.401541
88.999902
87.922419
68.223064
73.513991
81.325354
72.451244
82.201925
82.201925
72.468929
76.120929
83.307157
85.047450
84.802220
87.171069
88.358270
88.840291
88.928997
89.051365
74.839224
69.868278
89.724583
70.599234
76.549957
89.607152
89.339720
88.739590
87.288014
83.639311
87.053293
85.470029
75.121273
77.725502
89.916566
70.752270
76.446913
81.951717
83.620334
69.801255
75.722741
89.210129
89.247645
89.782720
89.388768
89.019215
88.622829
88.520888
89.038039
89.018212
81.112540
77.024015
88.463098
88.111136
80.736774
74.315753
89.100350
87.595929
81.180082
82.460232
69.224745
71.821198
88.091610
86.675316
83.765530
88.883471
86.073598
84.152654
88.555208
88.271312
88.308325
88.839941
89.407423
89.911048
89.745243
89.676119
89.638379
89.698067
89.741230
89.741701
89.511752
89.159448
88.902670
88.796205
88.779799
88.818280
86.934045
73.156989
72.978134
89.248284
88.094935
70.156088
71.428009
83.900625
86.600258
88.779408
89.403226
88.294451
87.348397
85.588202
82.135321
83.901542
77.643280
81.790605
79.511053
69.795024
70.931512
86.782827
88.565858
77.890808
82.676437
85.182838
87.147078
89.302559
89.158484
88.454078
87.082017
85.131225
83.099355
80.806916
88.033203
86.502443
65.480936
65.707409
88.471889
88.707811
89.217604
86.359345
87.659002
76.622075
78.160704
79.987779
81.502111
82.505179
84.405504
87.308204
88.651958
89.967754
88.514806
85.870254
83.217335
80.426414
77.631431
77.631431
74.728508
87.003247
80.674638
75.418941
65.377787
65.263652
87.317784
88.842835
70.373313
73.285182
75.342437
77.660552
80.166093
82.651281
84.955186
87.367676
88.728426
89.910565
88.416490
85.845678
83.387492
80.842059
78.164045
75.735396
73.440097
71.235912
84.335501
86.062040
70.927406
69.693080
80.556992
83.156591
86.595721
89.142328
88.677818
73.706588
89.444085
89.230901
89.584688
89.535790
70.227572
70.891300
87.396738
88.936735
77.735445
83.123480
86.639429
89.145442
88.649289
86.479961
85.570569
80.263027
83.971388
86.044695
69.645694
71.998964
71.340551
78.805369
78.879892
83.237627
85.757842
87.928239
89.641911
89.052367
87.549319
85.521721
83.071857
78.617761
81.863273
69.806302
71.693382
88.991694
89.864491
73.278068
83.489295
75.307848
86.021903
87.812519
88.793830
89.616787
89.550606
87.966258
85.794931
85.960682
84.586082
69.018675
74.090867
79.604955
75.129436
74.737369
84.654352
79.361891
81.885436
85.455334
88.418083
89.916289
89.000732
88.072395
86.070122
81.308838
71.860800
75.847115
72.754427
76.492412
83.785388
86.224785
84.952425
88.118156
85.427864
84.228310
89.859485
84.081246
74.599377
82.721514
69.595171
74.000565
80.610364
73.331083
73.251591
74.638273
82.457968
85.284846
87.594529
88.792817
89.667368
89.592005
89.092624
88.861300
88.118604
87.173659
85.207945
76.641197
80.959010
83.457013
72.363398
87.403928
85.794525
83.225557
85.864757
88.047129
87.995681
81.991135
81.991135
89.493204
89.012546
88.123177
87.200749
70.304362
74.534893
80.690655
83.439661
86.127106
83.727606
78.165954
76.177514
71.223669
72.085579
84.337975
86.107820
70.609000
75.143177
84.999723
87.357000
88.685473
89.461533
89.905320
89.315920
82.156262
80.454676
88.442771
84.242135
82.766254
80.102272
86.450067
89.384555
70.095965
73.935546
84.748734
86.547882
82.244237
85.529250
87.575407
88.845814
81.645757
89.959590
89.514012
89.266138
87.798711
85.975484
83.468663
69.862150
72.729253
81.355553
79.902601
76.844990
79.809140
84.999723
86.034676
87.678276
89.002496
89.732474
89.846729
89.087161
87.740256
83.565946
85.690756
77.620237
88.924207
73.090627
72.405335
74.203679
81.197928
84.590121
86.817807
86.817807
88.767504
70.957173
76.024337
89.069753
89.133042
85.265783
88.331233
88.836817
86.930365
86.930365
84.722635
81.057946
73.407371
78.668559
71.445054
78.846759
83.503885
86.013732
87.884215
89.205095
89.777144
88.261426
86.297257
83.728470
78.990302
71.520333
69.803770
83.312619
85.370071
69.483983
75.175884
82.355462
85.142244
88.636171
87.239998
87.590280
89.062433
89.661349
87.930562
89.296575
88.363972
85.337646
84.198518
82.198869
87.501864
89.012843
74.232836
83.008087
79.998805
71.161043
74.210220
88.358028
86.713777
85.863224
82.637620
81.258273
85.422796
83.901542
74.254741
74.453617
88.011129
88.055031
83.507791
84.735455
85.513235
87.638311
88.470219
85.434959
68.386555
74.923821
70.734647
75.716884
87.174556
88.469335
85.791939
84.415721
88.012693
89.219162
79.570394
88.914074
89.596703
87.672154
89.269129
88.615186
87.513251
80.504474
83.166479
85.730675
82.857293
71.226290
89.683105
88.474518
87.123183
82.437411
84.820642
86.712154
87.828743
88.917191
82.677661
80.116961
88.934941
89.740989
88.797543
87.924449
87.074440
86.146383
84.504438
78.431573
89.213591
87.603603
84.905155
81.559028
73.218513
78.083885
84.120642
87.935698
88.663504
89.476285
89.993985
89.721442
89.616439
71.451524
76.075202
89.689065
85.390566
87.662833
89.680487
89.613737
89.394939
88.697118
87.593029
83.748710
74.506721
83.976774
81.987970
89.737814
88.848880
71.318652
74.549838
89.635394
86.960050
89.964369
89.994621
89.933509
78.252562
89.964257
80.523165
76.911717
69.593773
74.818466
83.674831
85.502891
87.159407
78.500731
73.246146
70.214352
80.422864
85.074623
87.672542
89.475128
88.935919
87.382885
84.942551
80.459240
73.340881
70.374196
87.934499
81.894203
84.422213
79.377346
81.671542
89.449917
88.238005
89.301054
80.456223
89.400315
73.503196
70.026311
82.614119
77.071767
89.152053
88.670449
84.103513
86.017947
87.354012
88.492977
69.347566
72.714053
89.478619
89.675898
79.753107
82.403408
88.710199
87.545786
86.011619
88.385652
86.750002
86.750002
84.505331
82.346418
86.329395
72.689815
70.076158
88.351154
89.231026
79.233644
81.840229
83.562929
81.333275
87.059437
88.670050
72.503008
78.233803
89.422391
89.800959
86.784498
88.940759
87.246440
73.635692
79.486463
87.076064
85.339247
70.552043
77.024856
67.451576
71.779697
86.982819
88.136316
72.744671
78.953850
81.782961
76.614074
83.538343
81.164607
87.933304
85.112812
69.628416
81.555353
72.718510
83.234533
83.234533
80.483788
83.629937
85.935946
86.196634
84.709751
88.114558
89.484059
89.426212
88.698098
88.217431
71.002720
75.543107
83.571322
84.342155
82.441579
89.324168
70.921513
70.099440
89.332342
88.861138
78.035642
82.771308
85.001337
82.268723
88.037004
88.837464
89.070680
87.557498
86.623781
84.977221
82.672043
78.259172
86.623426
83.598516
71.460802
72.112309
78.680039
71.740596
76.666181
86.978521
86.978521
88.512649
76.289908
87.720847
83.122175
86.248232
84.191455
72.151832
76.546157
75.067679
88.632944
88.913735
88.425554
89.208602
89.629171
89.698126
89.974789
89.807338
89.467808
88.561055
85.622962
87.745332
89.934416
89.427219
70.970098
73.580869
75.035787
84.323833
83.099784
78.067807
86.976091
88.945654
89.566019
89.752993
89.945355
89.689438
89.039031
70.377168
80.155755
75.880132
75.304659
73.912869
75.539111
83.162048
80.143096
83.782058
89.029566
89.560222
88.892920
88.883586
88.903661
88.917271
88.996356
89.037636
89.017323
89.275454
89.754855
89.904654
89.726565
89.619437
89.561251
85.776424
83.107859
89.102777
87.788034
87.624473
79.988698
84.383453
73.588048
75.105998
88.329294
89.485427
87.578056
86.109772
88.761250
88.865967
89.026846
89.338415
89.541976
89.694052
89.731250
89.939863
89.964236
89.770037
89.570398
89.350048
89.263526
89.242342
88.435411
88.435411
84.750961
68.961776
89.159368
84.937748
87.367484
89.686390
88.843547
89.419356
88.840045
88.036708
83.791787
87.128149
87.608414
85.900161
83.959258
84.267641
80.723042
85.521490
68.157591
87.615936
72.959953
78.165709
73.350502
84.117510
86.043990
87.854540
89.767044
83.670100
81.694414
88.998476
88.536351
89.672804
88.871075
87.472557
85.772127
78.260068
77.699132
73.102334
70.352942
77.251264
69.630163
74.484890
72.806408
79.740885
79.981161
83.045280
85.175299
86.488246
87.760680
88.603625
87.763464
88.949463
89.526604
83.025592
76.148507
88.485514
87.390710
85.796160
83.552189
80.064852
83.400715
75.057500
69.633425
72.432515
88.200242
86.329128
89.971084
88.908658
85.379810
86.910282
86.902801
89.355800
87.428127
88.635540
73.403258
75.558082
89.665116
89.973631
89.749242
89.749801
81.438673