# vtk DataFile Version 3.0
Dislocation network (FCC crystal) exported from OpenDiS
ASCII
DATASET UNSTRUCTURED_GRID
POINTS 4318 FLOAT
0.00000000e+00 0.00000000e+00 0.00000000e+00
1.95620000e+04 0.00000000e+00 0.00000000e+00
0.00000000e+00 1.95620000e+04 0.00000000e+00
0.00000000e+00 0.00000000e+00 1.95620000e+04
1.95620000e+04 1.95620000e+04 0.00000000e+00
1.95620000e+04 0.00000000e+00 1.95620000e+04
0.00000000e+00 1.95620000e+04 1.95620000e+04
1.95620000e+04 1.95620000e+04 1.95620000e+04
2.20595102e+03 6.34001885e+03 1.27809458e+04
2.21287236e+03 6.33840927e+03 1.27862575e+04
2.20595102e+03 6.34001885e+03 1.27809458e+04
2.32369955e+03 6.38471987e+03 1.27078983e+04
6.84293537e+03 7.11807153e+03 5.72803776e+03
6.93901982e+03 7.06832751e+03 5.68169733e+03
6.84293537e+03 7.11807153e+03 5.72803776e+03
6.74861376e+03 7.16638602e+03 5.77404487e+03
2.43314880e+03 6.24502342e+03 1.29131481e+04
2.37309029e+03 6.27282660e+03 1.28808928e+04
2.43314880e+03 6.24502342e+03 1.29131481e+04
2.57541892e+03 6.17663275e+03 1.29870276e+04
7.02684726e+03 1.43177219e+04 1.49188727e+04
7.08944607e+03 1.43337170e+04 1.48402788e+04
7.02684726e+03 1.43177219e+04 1.49188727e+04
6.94200603e+03 1.42975152e+04 1.50239206e+04
2.69449423e+03 6.11869066e+03 1.30481608e+04
2.57541892e+03 6.17663275e+03 1.29870276e+04
2.69449423e+03 6.11869066e+03 1.30481608e+04
2.79815834e+03 6.17131207e+03 1.29971181e+04
9.84478528e+03 1.80522102e+04 9.85072161e+03
9.90625460e+03 1.80641464e+04 9.90025475e+03
9.84478528e+03 1.80522102e+04 9.85072161e+03
9.76655806e+03 1.80342180e+04 9.79048655e+03
2.95217539e+03 6.24704035e+03 1.29188293e+04
2.79815834e+03 6.17131207e+03 1.29971181e+04
2.95217539e+03 6.24704035e+03 1.29188293e+04
3.01766078e+03 6.27763686e+03 1.28839404e+04
4.66364561e+03 1.34963373e+04 1.04270530e+04
4.70935948e+03 1.34543491e+04 1.05147550e+04
4.66364561e+03 1.34963373e+04 1.04270530e+04
4.58120788e+03 1.35641749e+04 1.02767776e+04
3.18303743e+03 6.34377051e+03 1.27846974e+04
3.17578353e+03 6.34211047e+03 1.27902913e+04
3.18303743e+03 6.34377051e+03 1.27846974e+04
3.05867231e+03 6.39073009e+03 1.27072919e+04
6.96214931e+03 4.29352367e+03 9.40052572e+03
7.04622049e+03 4.32546819e+03 9.45265238e+03
6.96214931e+03 4.29352367e+03 9.40052572e+03
6.87340786e+03 4.26963121e+03 9.33567674e+03
2.93888286e+03 6.44568213e+03 1.26424545e+04
3.05867231e+03 6.39073009e+03 1.27072919e+04
2.93888286e+03 6.44568213e+03 1.26424545e+04
2.81321285e+03 6.50627761e+03 1.25773800e+04
2.81321285e+03 6.50627761e+03 1.25773800e+04
2.69449423e+03 6.56441047e+03 1.25167942e+04
2.69449423e+03 6.56441047e+03 1.25167942e+04
2.57010201e+03 6.50203395e+03 1.25788099e+04
2.57010201e+03 6.50203395e+03 1.25788099e+04
2.44586356e+03 6.44126579e+03 1.26422802e+04
2.44586356e+03 6.44126579e+03 1.26422802e+04
2.32369955e+03 6.38471987e+03 1.27078983e+04
7.79110402e+03 4.29711997e+03 9.39304934e+03
7.87684083e+03 4.27360013e+03 9.33083236e+03
7.79110402e+03 4.29711997e+03 9.39304934e+03
7.70180341e+03 4.32932599e+03 9.45014392e+03
1.68050128e+04 1.71227355e+04 1.28692914e+04
1.67023362e+04 1.71143360e+04 1.29803674e+04
1.68050128e+04 1.71227355e+04 1.28692914e+04
1.66786268e+04 1.71342881e+04 1.27313528e+04
6.10856359e+03 1.98394181e+03 7.47020646e+03
6.02483192e+03 1.94427986e+03 7.34681282e+03
6.10856359e+03 1.98394181e+03 7.47020646e+03
6.19856252e+03 2.01641158e+03 7.59267516e+03
1.66786268e+04 1.71342881e+04 1.27313528e+04
1.65741206e+04 1.71435421e+04 1.26175925e+04
1.65741206e+04 1.71435421e+04 1.26175925e+04
1.64552585e+04 1.71504790e+04 1.24917935e+04
4.38924855e+03 1.77819767e+04 1.62562372e+04
4.44248316e+03 1.77714343e+04 1.62135451e+04
4.38924855e+03 1.77819767e+04 1.62562372e+04
4.33434926e+03 1.77983181e+04 1.62947952e+04
1.62942671e+04 1.71516659e+04 1.23296152e+04
1.63836304e+04 1.71526049e+04 1.24180396e+04
1.62942671e+04 1.71516659e+04 1.23296152e+04
1.61707230e+04 1.71429864e+04 1.22147507e+04
1.61707230e+04 1.71429864e+04 1.22147507e+04
1.60439728e+04 1.71241610e+04 1.21068259e+04
1.60439728e+04 1.71241610e+04 1.21068259e+04
1.59209547e+04 1.70972114e+04 1.20107574e+04
1.59209547e+04 1.70972114e+04 1.20107574e+04
1.57882811e+04 1.70586140e+04 1.19166811e+04
1.57882811e+04 1.70586140e+04 1.19166811e+04
1.56532325e+04 1.70094800e+04 1.18307666e+04
1.56532325e+04 1.70094800e+04 1.18307666e+04
1.55214860e+04 1.69522530e+04 1.17562470e+04
1.55214860e+04 1.69522530e+04 1.17562470e+04
1.54204365e+04 1.69019644e+04 1.17054862e+04
1.54204365e+04 1.69019644e+04 1.17054862e+04
1.52888102e+04 1.69610969e+04 1.17779800e+04
1.52888102e+04 1.69610969e+04 1.17779800e+04
1.51645686e+04 1.70102220e+04 1.18530966e+04
1.51645686e+04 1.70102220e+04 1.18530966e+04
1.50356661e+04 1.70533325e+04 1.19388886e+04
1.50356661e+04 1.70533325e+04 1.19388886e+04
1.49031052e+04 1.70889143e+04 1.20358676e+04
1.49031052e+04 1.70889143e+04 1.20358676e+04
1.47648455e+04 1.71156145e+04 1.21474271e+04
5.46212600e+03 9.82595619e+03 1.24458273e+04
5.57984655e+03 9.75730760e+03 1.24948993e+04
5.46212600e+03 9.82595619e+03 1.24458273e+04
5.34833006e+03 9.90089727e+03 1.24069724e+04
1.46575634e+04 1.71295021e+04 1.22408216e+04
1.47648455e+04 1.71156145e+04 1.21474271e+04
1.46575634e+04 1.71295021e+04 1.22408216e+04
1.45297615e+04 1.71382927e+04 1.23598329e+04
1.45297615e+04 1.71382927e+04 1.23598329e+04
1.44791523e+04 1.71380110e+04 1.24107238e+04
1.44031092e+04 1.71375878e+04 1.24871901e+04
1.44791523e+04 1.71380110e+04 1.24107238e+04
1.44031092e+04 1.71375878e+04 1.24871901e+04
1.43675187e+04 1.71354058e+04 1.25249627e+04
5.34833006e+03 9.90089727e+03 1.24069724e+04
5.26654748e+03 9.96245309e+03 1.23867457e+04
5.54330743e+03 4.78972930e+03 1.15871132e+04
5.61321760e+03 4.64620161e+03 1.16607307e+04
5.54330743e+03 4.78972930e+03 1.15871132e+04
5.49169056e+03 4.88970388e+03 1.15387555e+04
1.65875976e+03 1.03156215e+03 7.25321720e+03
1.62567815e+03 9.93048582e+02 7.32481238e+03
1.65875976e+03 1.03156215e+03 7.25321720e+03
1.68517886e+03 1.06397763e+03 7.19438262e+03
1.40358603e+04 1.71103031e+04 1.28817238e+04
1.41367116e+04 1.71027723e+04 1.29901059e+04
1.40358603e+04 1.71103031e+04 1.28817238e+04
1.41628842e+04 1.71212392e+04 1.27437637e+04
1.41367116e+04 1.71027723e+04 1.29901059e+04
1.42612392e+04 1.70913590e+04 1.31260469e+04
1.42612392e+04 1.70913590e+04 1.31260469e+04
1.43698036e+04 1.70852182e+04 1.32407520e+04
1.43698036e+04 1.70852182e+04 1.32407520e+04
1.44948087e+04 1.70841197e+04 1.33668555e+04
1.44948087e+04 1.70841197e+04 1.33668555e+04
1.46278787e+04 1.70916692e+04 1.34923762e+04
1.46278787e+04 1.70916692e+04 1.34923762e+04
1.47513358e+04 1.71071612e+04 1.36003412e+04
1.47513358e+04 1.71071612e+04 1.36003412e+04
1.48627199e+04 1.71285024e+04 1.36903842e+04
1.48627199e+04 1.71285024e+04 1.36903842e+04
1.49746352e+04 1.71568018e+04 1.37740001e+04
1.49746352e+04 1.71568018e+04 1.37740001e+04
1.50907588e+04 1.71931523e+04 1.38537731e+04
1.50907588e+04 1.71931523e+04 1.38537731e+04
1.52060009e+04 1.72361796e+04 1.39259880e+04
1.52060009e+04 1.72361796e+04 1.39259880e+04
1.53187270e+04 1.72847253e+04 1.39901684e+04
1.53187270e+04 1.72847253e+04 1.39901684e+04
1.54204365e+04 1.73337140e+04 1.40428892e+04
1.54204365e+04 1.73337140e+04 1.40428892e+04
1.55271614e+04 1.72835178e+04 1.39863605e+04
1.55271614e+04 1.72835178e+04 1.39863605e+04
1.56378767e+04 1.72369550e+04 1.39222080e+04
1.56378767e+04 1.72369550e+04 1.39222080e+04
1.57538537e+04 1.71947546e+04 1.38484314e+04
1.57538537e+04 1.71947546e+04 1.38484314e+04
1.58701885e+04 1.71595151e+04 1.37673362e+04
1.58701885e+04 1.71595151e+04 1.37673362e+04
1.59798540e+04 1.71328407e+04 1.36843450e+04
1.59798540e+04 1.71328407e+04 1.36843450e+04
1.60896927e+04 1.71127485e+04 1.35945986e+04
1.60896927e+04 1.71127485e+04 1.35945986e+04
1.62138358e+04 1.70983483e+04 1.34848556e+04
1.62138358e+04 1.70983483e+04 1.34848556e+04
1.63456126e+04 1.70921053e+04 1.33593218e+04
1.63456126e+04 1.70921053e+04 1.33593218e+04
1.64668956e+04 1.70943243e+04 1.32358199e+04
1.64668956e+04 1.70943243e+04 1.32358199e+04
1.65736198e+04 1.71013567e+04 1.31220633e+04
1.65736198e+04 1.71013567e+04 1.31220633e+04
1.67023362e+04 1.71143360e+04 1.29803674e+04
9.53553030e+03 1.58658571e+04 3.42221079e+03
9.53245205e+03 1.58627399e+04 3.42224970e+03
9.53553030e+03 1.58658571e+04 3.42221079e+03
9.61710648e+03 1.57818010e+04 3.41973088e+03
1.86227367e+03 1.17129681e+04 3.39793787e+03
1.86885755e+03 1.17897508e+04 3.31457123e+03
1.86227367e+03 1.17129681e+04 3.39793787e+03
1.85874733e+03 1.16194518e+04 3.49498048e+03
9.41012085e+03 1.57355088e+04 3.42714962e+03
9.46751564e+03 1.57960680e+04 3.42398516e+03
9.41012085e+03 1.57355088e+04 3.42714962e+03
9.34366622e+03 1.56658184e+04 3.43038538e+03
1.52067339e+03 1.74657555e+04 7.79714583e+03
1.56641363e+03 1.74797240e+04 7.82891756e+03
1.52067339e+03 1.74657555e+04 7.79714583e+03
1.48087917e+03 1.74565291e+04 7.76657807e+03
9.16998188e+03 1.54758352e+04 3.44668423e+03
9.25984056e+03 1.55759044e+04 3.43647377e+03
9.16998188e+03 1.54758352e+04 3.44668423e+03
9.05515753e+03 1.53417861e+04 3.46590902e+03
9.05515753e+03 1.53417861e+04 3.46590902e+03
8.94945671e+03 1.52101061e+04 3.49188822e+03
8.94945671e+03 1.52101061e+04 3.49188822e+03
8.85971142e+03 1.50905617e+04 3.52168726e+03
8.85971142e+03 1.50905617e+04 3.52168726e+03
8.81971388e+03 1.50336033e+04 3.53864812e+03
8.77941558e+03 1.49762166e+04 3.55573650e+03
8.81971388e+03 1.50336033e+04 3.53864812e+03
8.77941558e+03 1.49762166e+04 3.55573650e+03
8.69959573e+03 1.48546755e+04 3.59745780e+03
8.69959573e+03 1.48546755e+04 3.59745780e+03
8.62320889e+03 1.47294207e+04 3.64632571e+03
8.62320889e+03 1.47294207e+04 3.64632571e+03
8.55336743e+03 1.46068073e+04 3.69909774e+03
8.55336743e+03 1.46068073e+04 3.69909774e+03
8.48066223e+03 1.44717355e+04 3.76146433e+03
8.48066223e+03 1.44717355e+04 3.76146433e+03
8.53172950e+03 1.43680697e+04 3.70886586e+03
8.53172950e+03 1.43680697e+04 3.70886586e+03
8.60089053e+03 1.42379422e+04 3.64789941e+03
8.60089053e+03 1.42379422e+04 3.64789941e+03
[...]
CELL_DATA 2156
SCALARS SlipSystemID int 1
LOOKUP_TABLE default
0
10
7
1
1
10
10
3
3
10
7
4
4
7
7
6
6
7
10
4
4
10
10
10
7
7
7
1
1
1
4
12
12
4
4
1
1
4
4
4
4
4
4
4
4
1
1
1
1
1
10
10
1
1
1
1
1
10
2
2
3
3
4
1
4
4
4
4
4
4
4
4
4
4
4
1
1
1
1
1
1
1
1
1
1
1
5
11
3
3
5
5
4
4
5
5
5
5
5
5
5
5
5
5
11
11
11
11
11
9
9
11
11
11
11
10
10
11
11
4
4
11
5
5
5
5
5
5
5
5
5
5
5
5
11
11
11
11
11
11
11
11
11
11
11
8
2
10
10
2
2
12
12
12
2
2
2
8
8
4
4
7
7
1
1
8
8
1
1
2
8
6
6
2
2
2
2
2
2
8
8
8
8
8
8
11
11
9
6
5
5
6
6
6
6
6
6
9
9
9
9
9
9
9
4
4
7
9
6
4
4
6
6
6
6
6
6
6
9
9
9
9
9
9
9
4
4
3
12
12
3
3
8
8
8
8
3
3
3
3
3
12
12
12
12
12
10
10
9
9
12
12
6
6
9
9
3
12
3
3
3
3
3
3
3
3
3
12
12
12
12
12
12
12
12
12
10
7
10
10
10
10
10
10
7
7
7
7
7
7
7
10
3
3
10
10
10
10
10
10
7
7
7
7
7
10
10
1
4
12
12
4
4
7
7
4
4
4
4
4
4
4
1
1
1
1
1
1
1
2
1
1
9
9
4
1
6
6
4
4
4
4
4
4
4
4
4
1
1
1
1
1
1
1
1
1
2
2
11
5
3
3
9
9
5
5
5
11
5
5
5
5
11
11
7
7
11
5
9
9
5
5
5
5
11
11
11
11
9
9
8
2
7
7
2
2
2
2
2
8
8
8
8
8
7
8
2
12
12
2
2
9
9
2
2
2
8
8
8
3
3
8
8
5
5
6
9
8
8
6
6
6
6
9
9
9
9
11
11
9
6
6
6
6
3
3
6
1
12
12
9
5
12
3
3
3
3
3
3
12
12
12
12
12
12
3
3
3
3
3
5
4
4
4
4
3
12
6
6
8
8
11
11
12
12
2
2
7
6
6
10
10
10
10
10
10
7
7
1
1
7
7
7
7
1
1
7
10
3
3
10
10
10
10
10
7
7
7
7
7
2
2
4
1
8
8
4
3
3
4
4
4
1
1
1
11
11
1
3
1
4
1
1
4
4
4
4
4
1
1
1
1
1
10
10
5
11
5
5
5
5
5
11
11
11
11
11
11
5
8
8
5
5
5
9
9
5
5
11
11
6
6
11
11
11
8
8
2
8
10
10
2
2
2
8
8
8
12
12
8
2
12
12
2
2
2
8
8
8
10
6
9
11
11
5
5
6
6
6
9
9
9
11
11
9
7
9
6
3
3
6
6
6
6
6
6
9
9
9
9
9
10
10
10
3
3
3
3
3
3
3
3
3
12
12
12
12
12
12
12
12
12
3
10
3
3
5
3
3
3
3
12
12
2
2
12
7
7
11
10
7
10
10
10
10
7
7
7
7
7
10
12
10
10
7
7
11
10
7
7
7
4
1
4
9
9
4
9
9
4
4
4
4
1
1
1
1
1
1
10
10
1
9
9
4
4
10
10
4
4
4
1
1
1
11
1
1
10
10
5
11
5
5
5
5
5
11
11
11
11
11
11
5
9
5
5
5
11
11
5
5
11
11
7
11
11
6
8
2
12
12
2
2
2
7
7
6
6
8
8
8
8
11
2
8
2
2
2
2
2
8
2
8
8
8
6
9
11
11
11
11
6
6
6
6
9
9
9
9
5
5
3
3
6
9
10
6
6
6
6
6
9
9
9
9
9
8
8
12
3
3
3
6
6
3
3
3
3
3
3
12
12
12
12
12
12
2
2
12
12
6
6
7
7
3
12
3
3
3
3
3
3
3
3
3
12
12
12
12
12
12
12
12
12
7
7
7
6
6
10
10
10
4
4
7
4
4
7
7
2
2
2
2
10
12
10
10
10
10
7
7
7
7
7
7
7
7
7
7
1
4
11
11
4
4
4
4
4
4
1
1
1
1
1
1
1
6
6
4
11
11
4
4
4
1
1
4
4
4
1
1
1
7
5
11
5
2
2
5
5
5
11
11
11
10
10
5
5
5
5
5
5
11
11
11
11
11
2
8
4
4
3
2
2
2
2
2
8
8
8
8
8
8
8
8
9
9
8
2
2
2
2
2
2
2
8
8
8
8
8
8
4
6
6
6
6
6
6
9
9
9
9
9
9
9
6
1
1
6
6
5
5
11
11
6
6
9
4
4
4
9
9
11
12
3
2
3
3
3
3
12
12
12
12
2
12
3
5
3
3
3
3
12
11
11
12
12
7
7
10
10
10
10
10
10
7
7
7
7
11
10
7
9
9
1
6
10
7
7
7
11
11
7
7
7
7
4
1
4
4
4
4
1
1
1
1
1
1
1
4
7
4
4
4
7
1
1
1
4
5
11
10
10
5
5
5
5
8
8
5
11
1
1
5
10
11
5
5
5
5
5
11
11
11
11
8
2
1
1
2
2
2
3
2
2
2
8
10
8
8
8
8
4
4
2
8
4
2
2
2
9
2
2
2
8
3
3
8
8
8
8
8
6
4
6
6
6
6
9
9
1
10
10
9
6
3
3
6
6
6
6
7
9
9
3
12
3
3
3
3
3
12
7
12
12
12
12
3
1
1
3
6
6
1
3
8
8
4
4
12
12
12
6
10
10
10
10
10
10
10
7
7
7
7
7
7
4
4
7
9
10
10
10
10
10
10
7
7
7
7
7
9
1
4
8
4
8
2
2
1
4
2
2
4
4
4
4
4
1
1
1
1
1
2
11
5
5
5
5
5
5
11
11
11
11
11
11
6
5
5
5
5
5
5
5
5
5
5
5
5
5
5
11
10
10
11
11
10
11
11
11
4
8
2
1
1
2
2
2
2
1
2
8
8
8
8
8
8
5
8
5
5
5
5
2
2
8
12
12
8
8
6
6
6
9
6
6
6
6
6
9
9
9
9
9
9
6
6
6
5
6
6
6
4
4
6
6
1
1
9
9
7
3
12
3
3
1
1
3
3
3
12
12
3
12
12
12
3
2
2
3
3
3
3
3
12
12
12
12
12
9
9
7
9
10
10
10
9
9
10
7
7
3
3
7
10
10
10
10
10
10
10
10
10
7
7
7
7
7
7
4
7
7
4
4
4
1
1
1
1
1
1
4
11
11
9
4
4
4
11
11
2
1
1
1
11
5
9
9
5
5
5
5
11
11
11
11
11
6
5
5
5
5
5
5
5
5
5
11
11
11
11
11
11
11
9
10
10
8
2
2
2
2
8
8
8
8
7
8
11
2
2
7
7
1
8
8
8
8
8
8
12
12
6
9
5
5
6
11
6
9
9
9
3
12
5
3
6
3
12
12
12
9
3
3
3
3
3
3
3
12
12
12
12
12
10
7
9
9
10
7
7
7
7
10
7
3
3
10
7
7
7
7
3
4
4
4
4
4
1
1
1
1
1
12
12
4
4
3
1
1
1
1
5
11
3
3
5
4
4
5
10
11
11
11
10
10
11
10
7
7
5
5
5
5
11
11
7
7
11
11
11
11
2
8
2
2
2
8
2
11
8
8
4
4
2
8
2
2
2
2
8
8
8
8
9
6
11
6
12
12
6
6
9
9
9
9
9
1
1
9
6
6
6
6
6
6
6
9
9
9
9
9
9
12
8
8
3
8
8
12
12
12
12
6
10
10
12
3
3
3
3
12
12
12
12
12
10
10
10
10
10
10
7
11
7
10
10
10
7
1
1
12
4
6
6
4
4
4
4
1
1
1
1
6
6
4
1
6
6
4
4
4
4
1
1
1
5
5
11
11
5
5
11
11
8
8
11
5
2
5
5
5
5
11
11
11
11
2
2
2
2
2
2
8
8
8
4
4
8
2
5
5
2
2
2
8
2
9
6
6
6
6
6
9
9
9
9
9
6
11
11
11
3
12
3
12
5
3
5
4
3
12
12
12
12
10
10
3
3
3
3
3
3
12
12
12
12
12
7
2
4
4
10
10
10
7
7
7
12
12
10
10
10
10
7
7
2
2
7
7
7
4
4
4
1
1
9
9
1
6
4
4
1
1
1
5
7
7
5
5
5
5
5
11
11
11
11
11
4
4
11
2
5
5
5
5
11
11
11
11
1
2
8
9
2
2
2
2
2
2
2
2
8
8
8
8
8
9
2
2
2
12
2
8
8
8
8
8
8
8
8
6
9
6
9
9
9
8
8
9
6
9
9
5
3
12
3
3
3
12
12
12
3
3
3
3
3
3
12
12
12
12
12
7
10
7
7
7
7
7
7
10
10
10
10
10
10
10
12
7
12
7
7
7
7
7
8
8
4
4
4
4
4
4
1
1
1
1
1
1
1
1
1
11
4
9
4
4
4
1
1
1
1
1
11
5
5
5
5
11
11
11
11
11
5
5
11
7
5
5
11
11
11
1
1
8
8
2
2
2
2
2
8
8
8
8
8
2
2
2
8
8
8
1
1
9
3
6
9
9
9
12
12
9
6
6
6
6
9
9
9
9
12
3
3
3
3
3
12
12
12
10
12
10
6
12
7
10
10
10
2
10
10
10
10
7
7
7
7
6
7
7
10
3
10
10
10
10
10
10
10
7
7
7
7
7
7
7
3
4
4
4
4
4
1
1
1
1
1
1
4
1
10
5
5
5
8
11
11
4
3
5
5
5
11
11
11
4
5
5
4
8
8
4
10
7
4
1
5
8
8
3
12
10
7
10
1
2
2
8
10
1
12
5
1
8
7
12
12
8
11
3
5
8
13
SCALARS DislocationType int 1
LOOKUP_TABLE default
0
2
3
3
3
3
3
2
2
3
3
2
2
3
3
3
3
2
3
3
3
3
3
3
3
3
3
3
3
2
2
3
2
2
2
2
3
2
2
2
2
3
3
3
3
3
3
3
3
2
3
3
2
2
2
2
2
2
3
3
3
3
2
2
2
2
2
2
2
2
2
3
3
3
3
3
3
3
3
2
2
2
2
2
2
2
2
2
2
2
2
2
3
2
2
2
2
2
3
3
3
3
3
3
3
3
3
3
3
3
3
3
2
2
2
2
2
2
2
3
3
2
2
2
2
2
2
2
2
3
3
3
3
3
3
3
3
3
3
2
2
2
2
2
2
2
2
3
3
3
3
2
2
3
3
3
3
3
3
3
3
3
3
3
3
3
3
3
3
2
2
3
3
3
3
3
3
3
3
3
3
3
3
3
3
3
3
2
2
3
3
2
2
2
3
3
3
3
3
3
3
3
2
2
3
3
3
2
2
3
3
2
2
3
3
3
3
3
3
3
3
3
2
2
2
2
3
2
2
3
2
2
2
2
2
2
3
3
3
3
3
3
3
3
3
2
3
3
3
3
2
2
3
3
3
3
2
2
2
2
2
2
3
3
3
3
3
3
3
3
3
2
2
2
2
2
2
2
3
3
3
3
3
3
3
3
3
3
3
3
2
2
3
3
3
3
3
3
3
3
3
3
3
3
3
3
3
2
2
3
3
2
2
2
2
2
2
2
3
3
3
3
3
3
3
3
3
2
2
3
2
2
3
3
2
2
3
3
2
2
2
2
2
3
3
3
3
3
3
3
3
2
2
2
2
2
3
3
2
2
3
3
2
3
3
3
3
3
2
2
2
2
3
3
3
3
2
2
3
3
3
3
3
3
3
3
3
3
3
3
2
2
2
3
3
3
3
3
3
3
3
3
3
3
3
2
2
3
3
3
3
3
3
3
3
3
3
3
3
3
3
3
3
2
3
2
2
3
3
3
3
3
3
3
3
3
3
2
2
2
2
3
3
3
3
3
3
3
3
3
3
3
2
3
3
3
3
3
3
3
3
3
3
3
3
2
3
3
3
3
2
3
3
2
2
3
3
3
3
3
3
3
3
3
3
2
2
2
3
3
2
2
3
3
3
3
3
3
3
3
3
3
2
2
3
3
2
2
3
3
2
3
3
3
3
3
3
3
3
2
2
2
2
2
2
2
3
2
2
3
3
3
3
3
3
3
3
3
2
2
2
3
3
3
3
3
3
3
3
3
3
3
3
3
3
3
2
3
3
3
3
3
3
3
3
3
3
3
2
3
3
3
3
3
3
3
3
3
3
3
3
3
3
3
3
3
3
2
3
3
3
3
3
3
3
3
3
3
3
2
3
2
2
3
3
3
3
3
3
3
3
3
3
3
3
3
3
3
3
3
3
3
2
2
3
2
3
3
3
3
3
3
3
3
3
3
3
3
3
3
3
3
3
2
2
2
2
2
3
3
3
3
3
3
3
3
3
3
2
2
2
2
2
2
2
2
3
3
3
3
3
3
3
3
3
2
3
3
3
2
2
3
3
3
3
3
3
3
3
2
2
3
3
3
2
3
2
3
3
3
3
2
2
2
2
3
3
3
3
3
3
3
3
3
3
3
3
3
3
3
3
2
3
3
3
3
3
3
3
3
3
3
3
3
3
3
3
2
2
2
2
3
3
3
3
3
3
3
3
3
3
2
2
3
3
3
3
3
3
3
3
3
3
3
3
3
3
3
2
3
3
2
3
3
2
3
3
3
3
3
3
2
3
3
2
3
3
3
3
3
3
2
3
3
3
2
2
2
2
2
2
3
3
3
3
3
3
3
3
3
3
3
3
2
2
3
3
3
3
3
3
3
3
3
3
3
3
2
2
2
3
2
3
3
2
2
3
3
3
3
3
3
3
3
2
2
3
3
2
2
2
3
3
3
2
2
2
2
2
2
2
3
3
3
3
3
3
3
3
2
2
2
2
2
2
2
3
3
3
3
3
3
3
3
3
2
2
3
3
3
3
2
3
2
3
3
3
3
3
3
3
3
3
3
3
3
3
2
2
2
3
3
3
3
3
3
3
3
3
3
3
3
3
3
3
3
3
3
2
3
3
3
3
2
2
2
3
3
3
3
3
2
3
2
2
3
2
2
3
3
3
3
3
3
3
3
2
3
3
3
3
3
3
3
3
3
3
2
3
3
3
3
3
3
3
3
3
3
3
3
3
3
3
3
3
3
3
2
3
3
3
3
3
3
3
3
3
3
3
3
3
2
3
3
3
3
3
3
3
3
3
3
3
3
3
2
2
2
3
3
3
3
3
3
3
3
3
2
3
3
3
3
3
2
3
3
3
3
3
3
3
3
3
3
3
2
3
2
3
3
3
3
3
3
3
3
3
3
3
2
3
3
3
3
3
3
3
3
3
2
2
2
2
2
2
3
3
3
3
3
2
2
3
3
2
3
2
2
3
3
3
3
3
3
3
3
3
3
2
2
3
3
3
2
2
2
3
3
2
2
2
3
3
3
3
3
3
2
3
3
3
3
3
2
3
2
2
3
3
3
3
3
3
3
3
2
2
2
2
3
3
3
3
3
3
3
3
3
3
3
3
3
3
3
2
2
2
3
3
3
3
3
3
3
3
3
3
3
3
3
3
3
3
2
3
3
3
3
3
3
2
3
3
2
3
2
3
3
3
3
3
3
3
3
3
2
3
3
3
3
3
3
3
3
3
3
3
2
3
3
3
3
3
2
3
3
3
3
3
3
3
3
3
2
3
3
3
3
3
3
3
3
3
3
3
3
2
3
2
3
2
2
3
3
3
3
3
3
3
3
2
3
2
3
2
3
3
2
3
2
2
3
3
2
3
3
3
3
3
3
3
3
2
3
2
2
3
3
3
3
3
3
3
3
3
3
2
3
2
3
3
2
2
2
2
3
3
3
3
2
3
3
3
3
3
3
3
2
2
2
2
3
2
2
3
3
3
3
3
3
3
3
3
3
3
3
3
3
2
2
2
2
2
3
3
3
3
3
3
3
3
3
3
3
2
3
3
3
3
3
3
3
3
3
3
3
2
3
3
2
3
3
3
3
3
2
3
3
3
3
3
3
2
3
3
3
2
2
3
3
3
3
3
3
3
2
2
2
3
3
3
3
3
3
3
3
3
3
3
3
3
3
2
3
2
3
3
2
3
3
3
3
3
3
2
2
2
2
2
2
3
3
3
3
3
3
3
3
2
2
2
2
2
3
3
3
3
3
3
3
3
2
2
2
3
3
3
3
3
3
3
3
3
3
3
2
2
3
3
3
3
3
3
3
3
3
3
2
2
2
2
2
2
2
3
3
3
3
3
3
3
3
2
2
2
2
2
3
3
3
3
3
3
3
3
3
3
3
2
2
3
3
2
3
3
3
3
3
3
3
3
3
3
3
3
3
3
3
2
3
3
3
3
2
3
3
3
3
3
3
3
3
3
3
3
3
3
3
3
3
3
3
3
3
3
2
3
2
3
3
3
3
3
3
2
2
3
3
3
3
3
3
3
2
2
3
3
3
3
3
3
3
3
2
2
2
3
3
2
3
3
3
3
2
3
3
3
3
3
3
3
3
3
3
3
3
3
2
3
2
3
3
3
3
3
3
3
3
3
3
3
3
3
3
3
3
3
3
3
2
3
3
3
3
3
3
3
3
3
3
3
3
3
3
3
2
2
3
2
3
3
3
3
3
3
3
3
2
3
3
2
2
2
3
3
3
3
3
3
3
3
3
3
2
2
3
3
3
2
3
3
3
3
3
3
3
3
2
3
3
3
3
3
3
3
3
3
2
2
3
3
3
3
3
3
3
3
3
3
3
3
2
3
2
3
3
3
3
3
3
3
3
3
3
2
3
2
2
3
3
3
3
3
3
3
3
3
3
2
2
3
3
3
3
3
3
3
2
2
2
3
3
3
3
3
3
3
3
3
3
3
3
3
3
3
3
3
3
3
2
2
3
3
3
3
3
3
3
2
3
3
3
3
3
3
3
3
3
3
2
3
3
2
3
3
2
3
3
3
3
3
3
3
3
3
3
3
3
3
3
3
3
3
3
3
3
3
3
3
2
3
3
3
3
3
3
3
3
3
3
3
3
3
3
3
3
3
3
3
3
3
3
3
3
3
3
3
2
2
3
2
3
3
3
3
3
2
3
3
3
3
3
3
3
3
3
3
3
3
3
3
2
3
3
3
3
3
3
3
3
3
3
2
2
3
2
2
2
2
3
3
3
3
3
3
3
3
2
3
2
2
3
3
3
3
3
3
3
2
2
2
2
3
3
3
3
3
3
3
3
2
3
3
3
2
2
3
3
3
3
3
3
2
3
3
3
3
3
3
3
3
3
3
3
3
3
3
3
3
3
3
3
3
3
3
3
3
3
3
2
3
2
3
3
3
3
3
3
3
3
3
3
3
3
3
3
3
3
3
3
3
3
2
2
3
3
3
3
3
3
3
3
3
3
3
2
3
3
3
3
3
3
3
3
3
3
2
2
3
3
3
3
3
3
3
3
3
3
2
3
3
3
3
3
3
3
3
2
3
3
3
3
3
3
3
3
2
3
3
3
3
3
3
3
3
3
3
3
3
3
3
3
3
2
3
3
3
3
3
3
3
3
3
3
3
3
3
2
2
2
3
3
3
3
3
3
3
3
3
3
3
2
2
2
3
2
3
3
3
3
3
3
3
3
3
3
3
3
2
2
2
3
3
3
3
3
3
3
3
2
3
3
3
3
3
3
3
3
3
3
3
3
3
3
3
3
3
3
2
3
3
3
3
3
2
3
2
2
2
3
3
3
3
3
3
3
3
2
3
3
3
3
3
2
3
3
3
3
3
3
3
3
2
2
2
2
SCALARS CharacterAngle float 1
LOOKUP_TABLE default
0.0
72.838257
82.087159
88.828386
89.190826
87.549284
88.723997
71.101322
70.443157
89.113557
89.496244
70.550388
72.684048
89.450078
87.832752
88.595009
86.789489
72.614618
81.955006
82.109140
75.079514
87.272230
88.821161
89.316554
89.904046
89.280569
87.544929
75.394346
80.858855
56.106373
55.670917
78.348952
74.825942
55.799990
57.188521
70.777548
76.849186
60.524093
63.608139
67.910243
72.027451
76.427097
81.063871
85.666359
89.845407
86.645912
83.113064
79.177365
75.029014
70.487770
84.515733
79.624883
66.835099
63.530090
59.724594
59.724594
57.050927
73.734569
89.145608
88.921736
87.491834
86.632417
56.432741
55.911276
55.659816
57.272597
59.565900
62.894769
66.613809
70.398676
74.072981
77.817340
81.680820
85.421734
88.786368
88.037991
84.759191
81.066726
77.179310
73.485518
69.890987
66.087067
62.406390
59.100468
56.837903
55.247596
60.623196
61.485514
64.072939
61.835816
62.660465
62.357288
77.334956
72.796007
65.319729
67.620695
70.733489
73.853433
76.856486
76.856486
79.741789
82.770868
85.404738
87.469670
89.511405
87.917771
84.917834
81.693797
78.447594
83.796523
85.527613
75.724654
71.996573
68.730319
66.077084
64.701130
69.289683
63.284295
63.506128
86.675753
88.460915
60.834004
61.763497
62.768486
64.487662
66.082566
67.981376
70.150082
72.543967
75.191713
77.964050
80.948102
83.992000
86.562881
89.364851
87.079133
83.530954
80.067212
77.006150
74.103307
71.237098
68.697937
66.415229
64.483238
62.519785
72.296969
67.763286
85.912690
84.424127
79.356439
83.553263
65.166080
68.281501
82.378827
87.115660
89.588310
88.960775
88.286283
87.739158
81.756450
81.756450
77.197815
81.270995
85.675925
84.551968
83.065964
79.217300
81.624909
81.624909
72.653677
67.709036
79.143023
76.440945
80.034275
83.081493
85.035893
87.119673
89.160567
89.478048
88.801944
88.020532
86.296066
84.325916
82.473675
79.527711
87.404619
89.466553
64.730979
65.832897
85.093085
83.590076
68.191155
71.457274
74.862784
82.980708
87.419567
89.851280
88.584217
86.551500
81.902803
78.778627
77.165090
74.190850
70.872811
78.063344
78.063344
86.497448
64.555169
65.971730
84.045700
85.349348
69.059706
72.089932
75.136747
78.934579
83.206134
87.750528
89.777111
88.327394
86.409974
82.324473
78.323990
74.695864
71.754609
68.840368
73.150429
78.884043
62.178791
63.046315
82.378827
63.070791
64.634861
63.558572
65.077553
71.121018
67.864731
75.369041
79.684052
83.732402
87.890846
87.887618
84.962356
82.502090
79.310827
76.149965
72.479201
84.330236
80.571313
89.014865
86.974141
65.116007
64.723499
83.459626
78.907138
78.799179
83.363215
63.297839
61.967202
64.722840
67.155483
70.082030
73.668441
77.851370
81.622910
85.022525
88.400716
88.347209
85.889210
83.695425
80.911925
77.998687
74.703966
71.211474
68.063779
65.342609
63.233020
72.267832
67.195056
77.693650
80.263207
84.704133
87.518606
89.288687
88.922031
87.764332
87.206933
86.016978
83.683016
79.823249
77.366299
71.671187
67.210545
87.334734
88.304864
78.070707
83.434964
85.529492
87.406251
89.293174
88.566281
87.726397
86.805938
84.997710
82.707436
79.175026
87.245359
87.245359
62.156627
62.284603
89.058679
89.480921
62.193018
64.094942
72.258189
68.587809
67.071345
70.638974
74.760828
78.947483
82.635994
85.976383
88.787310
88.864017
86.224257
82.981084
79.308335
75.114904
70.994239
67.358408
86.856652
64.689339
62.867771
81.503338
85.127434
62.070704
62.017340
86.813825
88.727809
62.987311
64.872976
67.338744
70.762948
74.697189
78.691246
82.312515
85.692943
88.676757
88.801415
85.970345
82.547601
78.941051
74.975033
70.962434
67.595151
65.036241
63.112162
85.077449
87.115660
71.007624
70.353697
87.754397
88.694863
71.259954
80.505605
84.597484
87.273106
89.229724
88.738556
70.197287
66.839807
71.413892
68.823268
84.832861
80.435388
76.055262
78.365664
68.525482
71.965595
87.083128
88.838630
78.899179
84.128716
87.280517
89.335544
88.833629
87.066204
84.613901
79.536365
87.372452
87.424126
71.347534
71.609082
73.695511
79.525619
79.074604
83.072380
85.730839
87.993570
89.945016
88.881929
87.262385
85.235961
82.826780
80.448705
83.979980
70.839242
71.944381
89.102473
89.612247
82.808640
85.205428
84.790656
78.886818
87.381275
88.731282
89.827823
89.140231
88.309828
86.795997
85.265865
85.265865
84.679183
80.984868
72.482456
79.817866
74.158097
74.703370
87.294537
88.106277
80.716302
86.812940
88.739827
89.989386
88.930619
88.092606
86.668776
80.702371
72.673381
72.673381
74.306355
72.122901
80.626540
86.098797
88.435411
86.450619
84.663886
89.826709
88.791135
77.518874
83.130689
79.643967
83.060479
72.912436
76.737096
84.131219
87.752635
89.178836
89.972441
89.290327
88.728406
88.670344
88.281397
87.028864
83.596075
76.380516
67.960843
87.913915
85.890201
82.289603
86.660474
63.473394
78.543108
80.637597
67.890226
72.897270
88.907655
88.503779
82.033110
78.029219
86.930596
84.188123
78.928540
78.928540
86.156074
81.157128
70.802523
68.994233
65.331111
87.528394
87.567452
72.762409
73.918673
75.743670
80.086844
85.533480
89.219921
88.585939
84.443117
83.574914
85.933573
78.487209
76.476548
73.833288
72.447592
87.353749
89.434857
63.425804
67.164393
83.365601
75.092988
72.181487
76.175698
80.814208
85.514502
89.337613
88.140054
84.561949
80.091500
75.923920
72.968347
65.549430
63.616182
65.797418
74.164360
63.861463
66.368423
76.626876
59.543090
60.054771
85.269997
87.609316
89.454406
89.205320
87.405044
85.157038
83.499946
84.872845
76.521637
65.026882
65.749385
74.106438
84.181286
80.461885
81.523825
84.529614
86.641701
88.416194
89.770347
89.338583
88.127935
86.481782
84.414613
81.482434
83.395541
76.393961
75.918057
69.310171
82.766688
86.139337
87.745046
88.814387
89.796326
89.410917
88.589330
87.625160
86.137732
82.892193
76.057051
69.512429
85.659990
86.622265
78.100233
83.231466
86.110469
88.180944
86.488580
88.178336
89.600426
89.520099
88.100952
88.984587
88.103890
85.999332
83.060985
77.892769
87.516391
88.230009
69.701759
75.008583
85.508404
83.990945
84.339950
86.347762
87.971304
89.866171
87.613643
84.793435
86.953637
84.297896
71.044944
79.005263
69.562996
69.895398
84.607394
86.789546
87.792064
89.261526
88.246786
83.700779
81.406657
78.770832
87.574522
87.827959
87.827959
85.747764
84.596621
88.640339
89.702359
89.992297
89.980689
89.683538
88.423563
68.509212
73.876081
88.438718
72.956022
80.863686
84.503251
89.852249
88.798722
87.363877
89.452885
89.853853
89.892539
89.811164
89.619995
89.571232
89.593531
89.566744
89.633240
89.625267
89.754738
89.978326
67.262035
65.960210
69.177617
69.177617
72.289303
75.467791
78.810441
82.893787
87.151800
89.115639
89.590257
87.531180
83.192535
79.008925
75.604819
72.491645
69.270975
69.270975
65.940219
65.103110
73.216034
70.709593
74.812611
82.728121
79.627352
82.726751
87.342473
89.376690
89.214038
87.082163
89.872030
89.904024
70.768728
86.661541
86.661541
75.392273
73.160164
68.376245
80.668380
85.257816
87.741679
89.460446
89.020230
87.526414
85.145112
80.707810
73.216254
68.448936
88.312671
82.105205
84.478128
71.158466
79.139968
61.798000
89.041370
88.886280
84.339665
82.000105
58.549191
72.150827
73.255972
70.134554
78.011375
80.085346
89.105335
88.294289
83.249409
85.653521
88.129687
89.537222
89.783864
88.392304
76.153551
80.420759
80.480217
75.187360
85.276540
87.515375
68.425847
87.768495
88.768705
81.198404
83.106189
81.522031
78.853920
87.045827
88.512377
89.422727
89.975801
88.899159
87.304412
86.208088
83.616345
81.505794
68.697989
73.297832
72.607154
66.737623
80.523252
84.134837
86.738499
89.093651
89.374097
88.731338
87.929096
86.112553
83.762125
80.469256
72.875015
70.047006
85.956471
77.110825
82.679928
85.750867
86.355470
84.965490
88.988729
89.927120
89.472176
87.851943
85.326460
83.234173
80.406371
89.344845
76.031204
64.785129
88.477989
88.314443
74.712056
80.715008
84.266369
65.390773
81.464315
88.678198
86.930248
86.094352
84.312796
80.339850
74.379552
87.102009
75.952020
64.541064
84.299944
86.929317
88.704105
89.834666
88.398299
87.841222
74.037862
87.221859
85.938352
83.818070
70.079985
74.437135
67.494757
70.881828
61.927367
64.004181
88.099557
89.062771
89.751540
89.751540
89.707986
89.707986
89.045986
88.051279
88.126195
89.548444
88.918770
88.777511
74.394772
70.093796
84.821946
82.307202
86.464345
88.133194
89.086021
89.801539
89.658800
89.020774
88.115845
86.477858
82.336314
78.993728
74.024317
59.841340
69.756644
78.557420
60.850111
88.691137
89.115975
68.351144
72.938709
77.272566
81.456168
85.426084
88.995748
87.911169
84.626250
80.806111
76.801603
72.388052
68.164929
81.214190
77.611395
64.437780
61.666850
71.196595
79.148964
83.153203
85.315175
60.386308
60.637473
60.246978
62.135684
64.981095
68.532938
72.842911
77.158197
81.097625
85.081112
88.707857
88.058293
84.560727
80.793095
76.889023
72.652137
68.433527
64.818344
62.154842
60.219781
69.815818
69.673452
76.144577
84.850846
81.486353
87.062655
88.575504
89.787170
83.498011
85.123797
88.309708
64.647364
70.192354
87.582749
86.224268
82.653929
85.006634
72.762891
79.986624
69.888876
87.101850
76.596668
82.328968
87.489553
89.928882
81.579935
79.000336
88.483152
87.982145
86.896250
83.554466
81.883926
76.468582
68.701496
73.321884
74.743167
76.943333
80.107752
83.359875
86.147738
88.312336
88.948125
89.295798
89.438445
89.458972
89.597592
89.932842
89.666492
89.297123
88.641287
86.566309
77.357331
85.053529
79.028101
74.612205
88.317999
85.355150
89.694455
87.660538
68.131325
56.210483
56.900702
89.802708
89.550533
89.293263
89.383341
89.407314
57.050927
85.281564
68.515792
71.682803
79.144079
67.167055
74.036264
87.056604
77.820065
88.413709
89.795254
82.775981
79.185912
83.120387
80.901226
71.684451
78.695553
83.497561
85.916996
87.434911
88.790483
89.765649
88.086850
86.342219
83.723416
78.747516
73.220368
79.413841
86.743469
81.759417
88.838327
89.056763
89.834593
89.753003
89.730599
89.610693
89.450191
89.496566
89.575951
77.530363
89.531742
89.255945
88.783004
87.868007
86.962218
87.599017
73.821578
78.620189
87.570526
89.466122
89.982037
89.927889
89.848966
89.459018
89.217667
89.261409
89.290372
89.328011
89.126015
87.355025
68.192787
78.297762
85.473636
88.331532
89.424881
89.867636
89.712729
89.390800
89.392383
89.164347
88.514124
87.551930
84.310103
76.264363
71.052446
66.498525
70.030796
80.809312
86.120621
83.225195
75.179602
86.022838
83.979003
89.468836
89.812647
89.644599
73.014389
78.957209
76.509198
87.129447
85.853136
80.203059
73.937603
76.303925
87.504055
84.946951
87.713908
88.827646
89.171821
89.661954
89.469054
88.117448
85.393459
81.634506
71.927434
76.570542
61.308400
85.662721
87.293022
88.571814
89.306978
89.994479
83.677204
79.013912
87.355563
86.034568
87.062129
87.062129
70.882228
79.004841
83.610151
85.811198
87.714573
89.216611
89.444187