# vtk DataFile Version 3.0
Dislocation network (FCC crystal) exported from OpenDiS
ASCII
DATASET UNSTRUCTURED_GRID
POINTS 4440 FLOAT
0.00000000e+00 0.00000000e+00 0.00000000e+00
1.95620000e+04 0.00000000e+00 0.00000000e+00
0.00000000e+00 1.95620000e+04 0.00000000e+00
0.00000000e+00 0.00000000e+00 1.95620000e+04
1.95620000e+04 1.95620000e+04 0.00000000e+00
1.95620000e+04 0.00000000e+00 1.95620000e+04
0.00000000e+00 1.95620000e+04 1.95620000e+04
1.95620000e+04 1.95620000e+04 1.95620000e+04
2.20595102e+03 6.37489937e+03 1.28158263e+04
2.21618446e+03 6.36653167e+03 1.28176920e+04
2.20595102e+03 6.37489937e+03 1.28158263e+04
2.27089765e+03 6.42409292e+03 1.28000732e+04
6.82301800e+03 7.19932571e+03 5.66670094e+03
6.94053234e+03 7.14846201e+03 5.60005030e+03
6.82301800e+03 7.19932571e+03 5.66670094e+03
6.69863189e+03 7.25725741e+03 5.73315536e+03
2.45214403e+03 6.21151768e+03 1.28986376e+04
2.40378576e+03 6.24119241e+03 1.28799541e+04
2.45214403e+03 6.21151768e+03 1.28986376e+04
2.57376405e+03 6.14417377e+03 1.29529137e+04
1.75833664e+04 8.37774753e+03 5.74923419e+03
1.74823977e+04 8.34508433e+03 5.68092874e+03
1.75833664e+04 8.37774753e+03 5.74923419e+03
1.76350090e+04 8.39282905e+03 5.78579531e+03
2.69449423e+03 6.08224885e+03 1.30117190e+04
2.57376405e+03 6.14417377e+03 1.29529137e+04
2.69449423e+03 6.08224885e+03 1.30117190e+04
2.80646644e+03 6.14080432e+03 1.29583023e+04
9.79918898e+03 1.81487488e+04 9.70858666e+03
9.87213292e+03 1.81807860e+04 9.74949343e+03
9.79918898e+03 1.81487488e+04 9.70858666e+03
9.71645389e+03 1.81103590e+04 9.66424143e+03
1.00084458e+04 5.29114947e+03 8.05525847e+03
9.94916159e+03 5.32773987e+03 8.15113308e+03
1.00084458e+04 5.29114947e+03 8.05525847e+03
1.00506434e+04 5.26131513e+03 7.98322650e+03
4.66013847e+03 1.35022828e+04 1.04176003e+04
4.70366156e+03 1.34615114e+04 1.05018949e+04
4.66013847e+03 1.35022828e+04 1.04176003e+04
4.59085289e+03 1.35611345e+04 1.02894630e+04
3.18303743e+03 6.37648332e+03 1.28174103e+04
3.17333002e+03 6.36858358e+03 1.28192179e+04
3.18303743e+03 6.37648332e+03 1.28174103e+04
3.11684725e+03 6.42615946e+03 1.28008962e+04
6.96054283e+03 4.20717168e+03 9.48527124e+03
7.02258785e+03 4.23377360e+03 9.52071433e+03
6.96054283e+03 4.20717168e+03 9.48527124e+03
6.87436597e+03 4.18112007e+03 9.42514598e+03
2.95923749e+03 6.52664569e+03 1.27437727e+04
3.11684725e+03 6.42615946e+03 1.28008962e+04
2.95923749e+03 6.52664569e+03 1.27437727e+04
2.81847880e+03 6.60521006e+03 1.26815784e+04
2.81847880e+03 6.60521006e+03 1.26815784e+04
2.69449423e+03 6.66928559e+03 1.26216693e+04
2.69449423e+03 6.66928559e+03 1.26216693e+04
2.56196940e+03 6.60031963e+03 1.26852282e+04
2.56196940e+03 6.60031963e+03 1.26852282e+04
2.42038551e+03 6.52047460e+03 1.27469671e+04
2.42038551e+03 6.52047460e+03 1.27469671e+04
2.27089765e+03 6.42409292e+03 1.28000732e+04
7.78898092e+03 4.21126443e+03 9.48102797e+03
7.87525892e+03 4.18528716e+03 9.42072724e+03
7.78898092e+03 4.21126443e+03 9.48102797e+03
7.72438206e+03 4.23862395e+03 9.51826731e+03
1.68050128e+04 1.71691044e+04 1.28229225e+04
1.67175974e+04 1.71890203e+04 1.28904220e+04
1.68050128e+04 1.71691044e+04 1.28229225e+04
1.67012036e+04 1.71458856e+04 1.27423320e+04
6.44126169e+03 1.70122077e+03 7.52018351e+03
6.37108536e+03 1.62953164e+03 7.37831805e+03
6.44126169e+03 1.70122077e+03 7.52018351e+03
6.51241981e+03 1.77253359e+03 7.66265444e+03
1.67012036e+04 1.71458856e+04 1.27423320e+04
1.65435872e+04 1.70937262e+04 1.26368751e+04
1.65435872e+04 1.70937262e+04 1.26368751e+04
1.64052275e+04 1.70406472e+04 1.25515943e+04
7.97870994e+03 1.88223833e+04 5.01070451e+03
7.95173086e+03 1.88956435e+04 4.96442343e+03
7.97870994e+03 1.88223833e+04 5.01070451e+03
8.03465981e+03 1.86851812e+04 5.09195672e+03
1.61788746e+04 1.69477249e+04 1.24181638e+04
1.62928948e+04 1.69950501e+04 1.24848588e+04
1.61788746e+04 1.69477249e+04 1.24181638e+04
1.60483982e+04 1.68925294e+04 1.23428828e+04
1.60483982e+04 1.68925294e+04 1.23428828e+04
1.59208360e+04 1.68372517e+04 1.22705984e+04
1.59208360e+04 1.68372517e+04 1.22705984e+04
1.58044976e+04 1.67852622e+04 1.22062495e+04
1.58044976e+04 1.67852622e+04 1.22062495e+04
1.56894029e+04 1.67322554e+04 1.21441615e+04
1.56894029e+04 1.67322554e+04 1.21441615e+04
1.55818881e+04 1.66810972e+04 1.20878049e+04
1.55818881e+04 1.66810972e+04 1.20878049e+04
1.54883885e+04 1.66347157e+04 1.20406868e+04
1.54883885e+04 1.66347157e+04 1.20406868e+04
1.54204365e+04 1.65999862e+04 1.20074644e+04
1.54204365e+04 1.65999862e+04 1.20074644e+04
1.53507102e+04 1.66331786e+04 1.20439984e+04
1.53507102e+04 1.66331786e+04 1.20439984e+04
1.52581951e+04 1.66768913e+04 1.20928007e+04
1.52581951e+04 1.66768913e+04 1.20928007e+04
1.51509855e+04 1.67260076e+04 1.21508941e+04
1.51509855e+04 1.67260076e+04 1.21508941e+04
1.50314271e+04 1.67793273e+04 1.22171328e+04
1.50314271e+04 1.67793273e+04 1.22171328e+04
1.49028714e+04 1.68350753e+04 1.22899404e+04
5.47691560e+03 9.93910588e+03 1.25737666e+04
5.58955434e+03 9.86961850e+03 1.26169179e+04
5.47691560e+03 9.93910588e+03 1.25737666e+04
5.34257534e+03 1.00287800e+04 1.25291004e+04
1.47824488e+04 1.68862818e+04 1.23591566e+04
1.49028714e+04 1.68350753e+04 1.22899404e+04
1.47824488e+04 1.68862818e+04 1.23591566e+04
1.46619500e+04 1.69364414e+04 1.24294958e+04
1.46619500e+04 1.69364414e+04 1.24294958e+04
1.45890834e+04 1.69663749e+04 1.24724288e+04
7.92845894e+03 1.89753225e+04 4.90801635e+03
7.92632639e+03 1.89865760e+04 4.89889534e+03
7.92845894e+03 1.89753225e+04 4.90801635e+03
7.95173086e+03 1.88956435e+04 4.96442343e+03
5.34257534e+03 1.00287800e+04 1.25291004e+04
5.26654748e+03 1.00888014e+04 1.25130939e+04
5.00738913e+03 4.82239460e+03 1.20903662e+04
5.07576019e+03 4.68262829e+03 1.21617614e+04
5.00738913e+03 4.82239460e+03 1.20903662e+04
4.97304613e+03 4.88970388e+03 1.20573999e+04
1.62007193e+03 1.06180508e+03 7.26166210e+03
1.59099984e+03 1.02809485e+03 7.32444441e+03
1.62007193e+03 1.06180508e+03 7.26166210e+03
1.64535940e+03 1.09269952e+03 7.20548019e+03
1.40358603e+04 1.71635514e+04 1.28284755e+04
1.40983472e+04 1.71753260e+04 1.28791879e+04
1.40358603e+04 1.71635514e+04 1.28284755e+04
1.41313079e+04 1.71426609e+04 1.27539183e+04
1.40983472e+04 1.71753260e+04 1.28791879e+04
1.42039729e+04 1.72074463e+04 1.29526932e+04
1.42992102e+04 1.72423615e+04 1.30130153e+04
1.42039729e+04 1.72074463e+04 1.29526932e+04
1.42992102e+04 1.72423615e+04 1.30130153e+04
1.44396000e+04 1.72971833e+04 1.30985833e+04
1.44396000e+04 1.72971833e+04 1.30985833e+04
1.45945920e+04 1.73609235e+04 1.31898350e+04
1.45945920e+04 1.73609235e+04 1.31898350e+04
1.47465333e+04 1.74251188e+04 1.32775812e+04
1.47465333e+04 1.74251188e+04 1.32775812e+04
1.48787769e+04 1.74820325e+04 1.33529110e+04
1.48787769e+04 1.74820325e+04 1.33529110e+04
1.49893679e+04 1.75304624e+04 1.34150721e+04
1.49893679e+04 1.75304624e+04 1.34150721e+04
1.50919593e+04 1.75763116e+04 1.34718143e+04
1.50919593e+04 1.75763116e+04 1.34718143e+04
1.51908066e+04 1.76214962e+04 1.35254769e+04
1.51908066e+04 1.76214962e+04 1.35254769e+04
1.52797108e+04 1.76635384e+04 1.35723391e+04
1.52797108e+04 1.76635384e+04 1.35723391e+04
1.53569672e+04 1.77008671e+04 1.36122667e+04
1.53569672e+04 1.77008671e+04 1.36122667e+04
1.54204365e+04 1.77323850e+04 1.36442182e+04
1.54204365e+04 1.77323850e+04 1.36442182e+04
1.54761397e+04 1.77050185e+04 1.36158815e+04
1.54761397e+04 1.77050185e+04 1.36158815e+04
1.55550432e+04 1.76668785e+04 1.35751181e+04
1.55550432e+04 1.76668785e+04 1.35751181e+04
1.56460669e+04 1.76245504e+04 1.35264224e+04
1.56460669e+04 1.76245504e+04 1.35264224e+04
1.57455145e+04 1.75796389e+04 1.34718864e+04
1.57455145e+04 1.75796389e+04 1.34718864e+04
1.58461692e+04 1.75350039e+04 1.34158667e+04
1.58461692e+04 1.75350039e+04 1.34158667e+04
1.59555471e+04 1.74874378e+04 1.33540548e+04
1.59555471e+04 1.74874378e+04 1.33540548e+04
1.60873907e+04 1.74311115e+04 1.32785375e+04
1.60873907e+04 1.74311115e+04 1.32785375e+04
1.62382934e+04 1.73676813e+04 1.31910650e+04
1.62382934e+04 1.73676813e+04 1.31910650e+04
1.63892104e+04 1.73058669e+04 1.31019624e+04
1.63892104e+04 1.73058669e+04 1.31019624e+04
1.65293628e+04 1.72520512e+04 1.30156258e+04
1.65293628e+04 1.72520512e+04 1.30156258e+04
1.66007150e+04 1.72269946e+04 1.29693302e+04
1.67175974e+04 1.71890203e+04 1.28904220e+04
1.66007150e+04 1.72269946e+04 1.29693302e+04
9.53065109e+03 1.58658571e+04 3.41733159e+03
9.51821377e+03 1.58512885e+04 3.41946282e+03
9.53065109e+03 1.58658571e+04 3.41733159e+03
9.59702567e+03 1.57810856e+04 3.39893471e+03
2.02522062e+03 1.15773767e+04 3.37058228e+03
2.07598439e+03 1.16237108e+04 3.27348445e+03
2.02522062e+03 1.15773767e+04 3.37058228e+03
1.97879526e+03 1.15345956e+04 3.45978872e+03
1.49743554e+04 1.33970750e+04 1.10850655e+04
1.48819415e+04 1.34444876e+04 1.10400641e+04
1.49743554e+04 1.33970750e+04 1.10850655e+04
1.50703969e+04 1.33484710e+04 1.11325029e+04
4.38116189e+03 1.36965696e+04 1.10473999e+04
4.33747912e+03 1.37288221e+04 1.09714647e+04
4.38116189e+03 1.36965696e+04 1.10473999e+04
4.43440160e+03 1.36614817e+04 1.11357275e+04
9.23540563e+03 1.54206404e+04 3.56730280e+03
9.31044151e+03 1.55444990e+04 3.51848011e+03
9.23540563e+03 1.54206404e+04 3.56730280e+03
9.14832158e+03 1.52727605e+04 3.62809864e+03
9.14832158e+03 1.52727605e+04 3.62809864e+03
9.06512618e+03 1.51292608e+04 3.68840298e+03
9.06512618e+03 1.51292608e+04 3.68840298e+03
8.99567793e+03 1.50080681e+04 3.74014738e+03
8.99567793e+03 1.50080681e+04 3.74014738e+03
8.95941737e+03 1.49447463e+04 3.76720864e+03
8.92382364e+03 1.48824314e+04 3.79392978e+03
8.95941737e+03 1.49447463e+04 3.76720864e+03
8.92382364e+03 1.48824314e+04 3.79392978e+03
8.86192204e+03 1.47729510e+04 3.84150859e+03
8.86192204e+03 1.47729510e+04 3.84150859e+03
8.80067848e+03 1.46622733e+04 3.89094273e+03
8.80067848e+03 1.46622733e+04 3.89094273e+03
8.74649212e+03 1.45617159e+04 3.93731377e+03
8.74649212e+03 1.45617159e+04 3.93731377e+03
8.69915608e+03 1.44717355e+04 3.97995818e+03
8.69915608e+03 1.44717355e+04 3.97995818e+03
[...]
CELL_DATA 2217
SCALARS SlipSystemID int 1
LOOKUP_TABLE default
0
10
7
1
1
10
10
4
4
10
7
4
4
9
9
6
6
7
10
4
4
10
10
10
7
7
7
1
1
1
4
12
12
4
4
2
2
4
4
4
4
4
4
4
4
1
1
1
1
1
10
10
1
1
1
2
2
10
2
2
3
3
4
1
4
4
4
4
4
4
4
4
4
4
4
4
1
1
1
1
1
1
1
1
1
1
1
1
5
11
3
3
10
10
6
6
5
5
5
5
5
5
5
5
5
5
11
11
11
11
11
9
9
11
11
11
11
8
8
11
11
4
4
11
5
5
5
5
5
5
5
5
5
5
5
5
11
11
11
11
11
11
11
11
11
11
11
8
2
10
10
2
2
9
9
12
2
2
5
5
8
8
8
4
4
7
7
1
1
1
1
10
10
2
8
6
6
10
10
4
4
2
2
2
2
4
4
8
2
8
8
8
8
8
8
7
7
11
11
6
9
7
7
7
7
6
6
6
6
8
8
5
5
9
9
9
9
4
4
7
7
9
6
4
4
6
6
6
6
6
6
4
4
9
5
9
9
9
9
9
2
2
3
12
12
12
12
12
12
8
8
3
3
3
3
3
3
12
12
12
7
7
12
12
10
10
9
9
7
7
7
7
12
12
3
3
3
3
3
3
3
3
3
3
3
12
12
12
12
12
12
12
12
12
12
7
5
5
12
12
10
10
10
10
7
7
7
7
12
12
10
10
7
10
3
3
10
10
10
10
10
10
7
7
7
7
7
10
10
1
4
12
12
3
11
11
4
4
4
4
4
4
4
4
1
1
1
1
1
1
1
2
10
10
4
1
6
6
4
4
4
4
4
4
4
4
4
1
1
1
1
1
1
1
1
1
2
2
5
11
10
11
11
5
5
5
11
11
11
5
5
8
8
7
7
11
5
9
9
5
5
5
5
11
11
11
11
9
9
8
2
7
7
2
2
2
2
2
8
8
8
8
8
7
2
8
12
12
7
9
9
2
2
2
2
8
8
8
3
3
7
4
4
6
9
3
3
6
6
6
6
9
9
9
9
11
11
9
6
3
6
6
3
3
6
1
12
12
4
5
5
12
3
3
3
3
3
3
3
12
12
12
12
12
12
4
3
3
3
3
3
5
5
4
4
4
3
12
6
6
4
4
11
11
12
12
2
2
10
7
6
6
10
10
10
10
10
10
7
7
1
1
7
7
7
7
1
1
7
10
8
8
10
10
10
10
4
4
7
7
7
7
7
1
1
1
8
8
10
4
4
4
4
1
1
1
1
3
3
1
1
3
1
4
4
4
4
4
4
1
1
1
1
1
3
5
11
5
5
5
5
5
11
11
11
11
11
11
5
4
4
5
5
9
9
5
5
11
11
6
6
11
11
2
2
8
8
2
8
10
10
2
2
2
8
8
12
12
2
12
12
2
2
2
8
8
8
11
6
9
11
11
5
5
6
6
2
9
6
5
5
9
9
5
9
5
5
9
6
3
3
6
6
6
6
6
6
2
2
9
6
9
9
9
9
9
2
2
2
2
2
2
3
12
3
3
3
3
3
3
3
3
11
12
11
11
12
12
12
12
12
12
12
3
2
2
2
2
1
5
3
3
3
1
12
12
2
2
12
7
7
11
10
7
10
10
10
10
7
7
7
7
7
12
7
7
10
10
7
3
3
4
1
4
3
4
9
9
4
4
4
4
10
4
1
10
1
1
1
1
1
8
8
10
10
4
1
9
9
4
4
10
10
4
4
11
11
4
1
3
1
1
8
8
10
10
5
11
11
11
5
5
5
11
11
11
2
5
9
5
5
5
11
11
7
5
11
1
9
11
11
6
2
8
12
12
2
2
2
1
1
7
8
6
6
8
8
8
8
11
2
8
10
10
3
3
8
2
8
8
1
1
1
1
9
6
11
11
6
6
6
6
9
9
9
9
5
5
3
3
6
9
10
6
6
6
6
6
9
9
9
9
9
8
8
12
3
4
4
4
4
6
6
3
3
3
3
3
3
3
12
12
12
12
12
12
2
2
12
12
5
5
7
7
12
5
5
3
3
3
3
3
3
3
3
12
12
12
12
12
12
12
12
12
5
5
5
10
10
10
4
4
10
7
5
5
7
7
7
2
2
6
6
10
12
10
10
10
10
10
10
10
7
7
10
7
10
10
7
7
7
7
7
1
4
11
11
1
1
4
4
4
4
4
10
10
4
1
1
1
1
1
1
6
6
4
1
11
11
4
4
7
1
1
4
4
7
1
1
1
1
7
5
11
5
5
12
12
5
5
11
5
11
11
10
10
5
5
5
5
5
5
11
11
11
11
11
2
8
6
6
3
2
2
2
2
2
8
2
8
2
8
8
8
8
1
8
2
8
2
2
2
2
2
2
2
2
8
8
8
8
8
8
8
1
4
9
6
6
6
6
6
6
9
9
9
9
9
11
11
9
6
10
10
6
5
5
11
11
6
6
9
7
7
4
6
6
9
9
1
1
12
3
2
3
3
3
3
12
12
12
12
2
3
11
3
3
12
12
3
3
12
11
11
12
12
7
7
10
7
2
2
10
10
10
10
7
7
7
7
3
3
7
10
9
6
10
7
7
9
9
7
7
3
3
4
1
4
4
4
4
4
1
1
1
1
3
3
4
1
7
9
9
6
6
7
9
9
1
1
6
6
5
11
10
10
5
5
5
5
11
11
5
11
1
1
5
10
11
5
5
5
5
11
11
11
11
11
8
8
8
6
2
2
2
8
8
8
8
8
8
8
1
8
8
4
4
2
8
1
2
2
2
9
9
2
2
2
8
6
8
8
8
8
8
9
6
4
6
6
6
6
9
9
9
1
10
10
9
6
6
6
6
6
6
7
9
9
12
3
3
3
3
1
12
3
12
12
12
12
12
12
1
1
3
12
1
1
3
6
6
1
1
3
8
8
4
4
12
12
12
6
10
8
8
1
10
10
10
10
8
8
10
7
7
7
7
7
7
7
7
3
3
7
9
3
10
10
3
3
7
7
9
9
9
4
7
7
4
8
8
11
11
1
4
1
2
2
4
4
4
4
4
4
4
1
1
1
1
11
5
11
5
5
5
5
5
5
5
5
11
11
11
11
11
11
11
5
5
5
10
5
5
5
5
5
5
7
7
5
11
10
10
11
11
10
11
12
12
4
2
8
2
2
2
2
4
2
8
8
8
8
8
8
5
8
6
6
5
5
2
8
12
12
8
8
6
6
9
6
6
6
6
6
6
9
9
9
9
9
9
6
12
12
12
12
6
6
4
4
1
1
7
7
12
3
3
3
5
5
3
3
3
12
12
12
12
5
5
3
2
2
3
3
3
3
3
12
12
12
12
7
9
9
7
10
9
10
7
10
8
8
7
5
5
7
7
3
3
7
7
10
10
10
10
10
10
8
8
7
7
7
7
7
4
4
1
4
4
4
4
4
4
1
1
11
11
10
10
4
1
2
8
8
11
11
4
4
4
11
11
8
9
1
1
3
3
5
11
5
9
9
5
5
3
3
5
5
11
11
11
11
11
11
1
11
11
4
11
5
4
4
5
5
5
5
5
5
5
11
4
11
11
11
11
11
2
2
2
2
8
8
8
8
7
2
8
11
2
2
1
8
8
8
8
8
9
12
12
6
9
5
5
5
5
5
5
6
9
9
9
3
12
5
3
3
3
3
12
12
3
3
9
3
12
3
3
3
3
3
3
12
12
12
12
12
7
10
9
10
9
7
7
9
10
7
9
7
10
7
7
7
7
4
4
4
4
4
1
1
1
1
1
12
4
3
1
1
1
11
10
11
11
5
5
5
5
11
11
7
7
11
11
11
11
8
7
2
2
2
8
2
11
8
4
4
2
2
2
2
2
2
8
8
8
8
8
9
6
6
6
6
9
9
9
4
2
1
1
6
6
6
6
6
6
3
9
9
9
9
9
12
7
3
5
12
12
12
12
6
10
10
12
3
3
3
3
12
12
12
12
12
10
10
10
10
10
10
7
11
11
7
10
10
9
10
7
12
6
6
4
4
4
4
1
1
1
1
2
2
4
4
4
1
1
1
1
3
5
5
11
11
5
5
12
6
5
5
5
5
5
11
11
11
11
2
2
2
2
2
2
8
8
8
4
4
2
8
8
2
2
2
8
8
1
1
6
9
6
6
6
6
9
9
9
9
9
11
11
11
9
12
3
3
4
3
12
12
12
12
10
10
3
3
3
3
12
12
12
5
7
10
10
10
10
7
10
7
2
12
12
10
10
10
6
10
7
8
7
7
7
1
4
4
4
1
1
3
1
11
1
1
1
7
5
5
5
5
5
11
11
11
11
11
11
4
4
2
5
5
5
5
11
11
11
11
1
2
9
2
2
2
2
2
2
2
2
8
8
8
9
8
8
2
2
2
2
8
8
8
8
8
8
8
8
6
9
6
9
9
10
10
8
6
9
8
6
11
11
9
9
3
12
3
3
3
12
4
9
3
3
3
3
3
3
12
12
12
12
12
7
10
10
10
7
7
7
7
7
7
10
10
10
10
10
10
10
10
7
12
7
7
7
7
7
7
1
8
4
4
4
4
4
1
1
1
1
1
1
1
1
1
4
4
4
4
1
1
1
1
1
1
8
1
11
1
5
5
5
5
6
11
11
11
5
11
1
5
11
5
11
11
11
11
8
8
2
2
2
2
2
8
8
8
8
8
2
2
8
8
1
1
9
3
6
9
6
9
9
9
12
9
6
6
6
9
9
9
9
3
12
3
3
3
3
12
12
12
3
3
12
6
12
7
2
10
10
10
7
7
7
7
11
10
7
10
10
10
10
10
10
7
7
7
7
7
7
4
1
10
4
4
4
4
1
1
1
1
1
8
1
4
1
1
1
10
5
5
4
11
4
3
5
5
5
11
11
11
4
6
1
11
4
1
3
9
5
8
5
12
10
7
10
2
2
8
1
10
1
1
11
8
8
1
8
7
12
12
8
12
6
9
2
10
11
6
6
8
9
7
11
11
2
5
13
8
6
8
9
11
12
2
10
10
6
10
3
SCALARS DislocationType int 1
LOOKUP_TABLE default
0
2
2
3
3
3
3
3
3
3
3
3
3
3
3
3
3
2
2
3
3
3
3
3
3
3
3
3
3
2
2
3
3
3
3
3
3
3
3
3
3
3
3
3
3
3
3
3
3
3
3
3
3
3
3
2
3
2
3
3
3
3
2
2
3
3
3
3
3
3
3
3
3
3
3
3
3
3
3
3
3
3
3
3
3
3
3
3
2
2
3
3
3
3
3
3
3
3
3
3
3
3
3
3
3
3
3
3
3
3
3
3
3
3
3
3
3
2
3
3
3
3
3
2
2
3
3
3
3
3
3
3
3
3
3
3
3
3
3
3
3
3
3
3
3
3
3
2
2
3
3
3
3
3
3
3
3
3
3
2
3
3
3
3
3
3
3
3
3
2
3
3
3
2
2
3
3
2
3
2
3
3
3
3
3
3
3
3
3
3
3
3
3
3
3
3
3
3
3
2
3
2
2
3
3
3
3
3
3
2
3
2
3
3
3
3
3
3
2
3
3
2
3
3
3
3
3
3
3
3
3
3
3
3
3
3
3
3
3
3
3
3
2
3
3
3
3
2
3
3
2
3
3
3
3
3
3
3
3
3
3
3
3
3
3
3
3
3
3
3
2
2
3
3
3
3
3
3
3
3
3
3
3
3
3
3
3
3
3
3
3
3
3
3
3
2
3
3
2
3
3
3
3
3
3
3
3
3
3
3
3
3
2
2
3
3
3
3
3
3
3
3
3
3
3
3
3
3
3
2
2
3
3
3
3
3
3
3
3
3
3
3
3
3
3
3
3
3
3
3
3
3
2
3
2
2
3
3
2
3
3
3
3
3
3
3
3
3
3
3
3
3
3
3
3
2
3
3
2
2
3
2
2
3
3
3
3
3
3
3
3
2
2
3
3
2
2
3
3
3
3
3
3
3
3
3
3
3
3
2
2
2
3
3
3
3
3
3
3
3
3
3
3
3
2
2
3
3
3
3
3
3
3
3
3
3
3
3
3
3
3
2
2
2
2
3
3
3
3
3
3
3
3
3
3
2
2
2
3
2
3
3
3
3
3
3
3
3
2
3
2
3
2
3
3
3
3
3
3
3
3
3
3
3
3
3
2
3
3
3
3
3
3
3
3
2
3
3
3
3
2
2
3
3
3
3
3
3
2
3
3
3
3
3
3
3
3
3
3
3
3
3
3
3
3
3
3
3
2
3
3
3
3
3
3
3
3
3
3
3
3
3
3
3
3
2
3
3
3
3
3
3
3
3
3
3
3
2
3
3
3
3
2
2
3
3
3
3
3
3
3
3
3
3
3
2
2
3
3
3
3
3
3
3
3
3
3
2
2
2
3
3
3
3
3
3
3
3
3
3
3
3
3
3
3
3
3
2
3
3
3
3
3
3
3
3
3
3
2
3
3
3
3
3
3
3
3
3
2
2
3
3
3
3
3
3
2
3
3
3
3
3
3
3
3
3
3
2
2
3
3
3
3
3
3
3
3
3
3
3
3
3
3
3
3
3
3
3
3
3
2
2
3
3
3
3
3
3
3
3
3
3
2
3
3
3
3
3
3
3
3
3
3
2
3
3
3
3
2
3
3
3
3
3
3
3
3
2
3
3
3
3
2
2
3
3
3
3
3
3
3
3
2
3
3
3
3
3
3
3
3
3
2
2
3
3
3
3
3
3
3
3
2
3
3
3
3
3
3
3
3
3
3
3
3
2
2
3
3
3
3
3
3
3
3
3
3
3
3
3
3
3
2
3
2
3
2
2
3
3
2
3
3
3
3
3
2
2
3
3
3
3
3
3
3
3
3
3
3
3
3
3
2
2
3
3
3
3
3
3
3
3
3
3
3
3
3
3
3
3
2
2
3
3
3
3
3
3
3
3
3
3
2
2
3
3
3
3
3
3
3
3
3
3
3
3
3
3
3
3
3
3
3
3
3
3
3
3
3
3
3
3
3
3
3
3
3
3
3
2
3
3
3
3
3
3
3
3
3
3
3
3
3
3
3
3
3
3
3
3
3
3
3
3
3
2
2
3
3
3
3
3
3
3
3
3
3
3
3
3
3
3
3
3
3
3
3
3
3
3
3
3
3
3
2
3
3
3
3
3
3
3
3
2
3
2
3
2
2
3
3
3
3
3
3
3
3
3
3
3
3
2
3
2
2
3
3
2
3
3
3
3
3
3
3
3
3
3
3
3
3
3
3
3
3
2
2
3
3
3
3
3
3
3
3
3
3
3
3
3
3
3
2
2
3
3
2
3
3
3
3
3
3
2
3
2
2
3
3
3
3
3
3
3
3
3
3
2
2
3
3
3
3
3
3
3
3
3
3
3
2
3
3
3
3
3
2
2
3
3
3
3
3
3
3
3
3
3
3
3
3
3
3
3
2
3
2
3
3
3
3
3
3
3
3
3
3
3
3
3
2
2
3
3
3
3
2
3
3
3
3
3
3
3
3
3
3
3
3
3
3
3
3
3
3
3
3
3
3
3
3
3
3
3
2
3
3
3
3
3
3
3
3
2
3
3
3
3
2
2
3
3
3
3
3
3
3
3
3
3
3
3
2
2
3
3
3
3
3
2
3
3
3
3
3
2
2
3
3
3
3
3
3
3
3
3
3
3
2
2
3
3
3
3
3
3
3
3
3
3
2
3
2
2
3
3
3
3
3
3
2
2
3
3
3
3
2
3
2
2
3
3
3
3
3
3
3
3
3
2
3
3
3
3
3
3
3
3
3
3
3
3
3
3
2
3
3
2
2
3
3
3
3
3
3
3
3
3
3
3
3
3
3
3
3
2
3
2
3
3
3
3
3
3
3
2
3
3
3
3
2
3
3
3
3
3
3
3
2
3
3
3
3
3
3
3
3
3
3
3
3
3
3
2
2
3
3
3
3
3
3
2
3
3
3
3
3
3
3
3
3
3
2
2
3
2
3
3
3
3
3
3
3
3
3
3
3
3
3
3
2
3
3
2
3
3
3
3
3
3
3
3
3
3
3
3
3
3
3
3
3
2
3
3
3
2
3
3
3
3
3
3
3
3
3
3
3
3
3
3
2
2
2
2
2
3
3
3
3
3
3
3
3
3
3
2
3
2
3
3
3
3
3
3
3
3
3
3
3
3
3
3
3
3
3
3
3
3
3
3
2
2
3
3
3
3
2
3
3
3
3
3
3
3
3
2
3
3
2
3
3
3
3
3
3
3
3
3
3
2
3
3
3
3
3
3
3
3
3
3
2
3
2
3
3
3
3
3
3
3
3
3
3
2
3
3
3
3
3
3
3
3
3
3
3
3
3
2
2
3
3
3
3
3
3
3
3
3
3
3
3
3
3
3
3
3
3
3
3
3
2
2
3
2
2
3
3
3
3
3
3
3
3
3
3
3
3
3
3
3
3
3
3
3
2
3
2
3
3
3
3
3
3
3
3
3
3
3
3
2
2
3
2
2
2
3
3
3
3
3
3
3
3
3
3
3
3
3
3
3
3
3
3
3
2
3
3
3
3
2
2
3
3
3
3
3
3
3
3
3
3
3
3
3
3
3
3
3
3
3
2
3
3
3
3
3
3
3
3
3
3
3
3
3
3
2
2
3
3
3
3
3
3
3
3
3
3
3
3
3
3
3
3
3
3
2
3
3
3
3
3
2
3
3
3
3
3
3
3
3
3
3
3
2
2
3
3
3
3
3
3
3
3
3
3
3
2
3
3
3
3
3
3
3
2
2
3
3
3
3
3
3
3
2
3
3
3
3
3
3
3
3
2
3
3
3
3
3
3
2
3
3
3
3
3
3
3
3
3
3
3
3
3
3
3
2
2
3
3
3
3
3
3
3
3
3
2
3
3
3
3
3
3
3
3
3
3
2
2
3
3
3
3
3
3
3
3
3
3
3
3
3
3
3
3
3
3
3
3
3
3
3
3
3
2
3
3
3
3
3
3
3
3
3
3
3
3
3
3
3
3
3
2
2
3
3
3
3
3
3
3
3
2
3
3
3
3
3
3
3
3
3
3
3
3
3
3
3
2
3
3
3
3
3
3
3
3
3
3
3
2
3
3
3
3
3
2
3
3
3
3
3
3
3
3
3
3
3
3
3
3
3
3
3
3
3
2
2
3
3
3
3
3
3
3
3
3
3
3
3
3
3
3
3
3
3
3
3
3
2
3
3
3
3
3
3
3
3
3
3
3
3
2
3
3
3
3
3
3
3
2
3
3
3
3
3
3
3
3
2
3
3
3
3
3
3
3
3
3
3
3
2
3
3
3
3
3
3
2
3
3
3
3
3
3
3
3
3
3
3
3
3
3
3
3
3
3
3
3
3
3
3
3
3
3
3
3
2
3
2
3
3
3
3
3
3
3
3
3
3
3
2
2
2
3
3
3
3
3
3
3
3
3
3
3
3
3
3
3
3
3
3
3
3
3
3
3
3
3
3
3
2
2
3
3
3
3
3
3
2
3
3
3
3
3
3
3
3
3
3
2
3
3
3
3
3
3
3
3
3
2
3
3
3
3
3
3
3
3
3
3
3
3
3
3
3
3
3
3
3
3
3
3
3
3
3
3
3
3
3
3
3
3
3
3
3
3
3
3
3
3
3
3
3
2
3
3
3
3
3
3
3
3
3
3
2
3
3
3
3
3
3
3
3
3
3
2
3
3
3
3
3
3
3
3
2
3
3
3
3
3
3
2
3
3
3
3
3
3
3
3
3
3
3
3
3
3
3
3
2
3
3
3
3
3
3
3
3
3
3
3
3
3
3
3
3
3
3
3
3
3
3
3
3
3
3
3
3
3
3
3
3
3
3
3
3
3
2
2
3
3
3
3
3
3
3
3
3
2
3
3
3
3
3
3
3
3
3
3
3
3
3
3
3
3
3
3
3
3
3
3
3
3
3
3
3
3
3
3
3
3
3
3
3
3
3
3
3
3
3
3
2
3
3
3
3
3
3
3
3
3
3
3
3
2
3
3
3
3
3
2
3
3
3
2
3
3
3
3
3
3
3
3
3
3
3
3
SCALARS CharacterAngle float 1
LOOKUP_TABLE default
0.0
69.855532
73.444215
85.564932
87.734615
82.524140
86.450205
78.480519
76.496898
89.145280
88.482230
85.984270
87.620248
82.218131
84.340801
88.920308
87.308382
70.083239
73.866980
85.296862
77.140882
80.974280
86.158637
88.888494
88.650572
85.777328
80.511399
77.064442
84.953841
72.553439
72.303121
89.647254
89.964080
78.953128
82.346859
81.350722
83.922446
84.398317
84.921069
85.598428
86.490131
87.391768
88.400980
89.739389
89.266348
88.415058
88.180779
87.232255
86.430195
85.618802
82.312110
79.052508
85.065037
84.477373
84.119307
70.275485
76.499077
71.518003
89.284275
89.323427
87.557663
86.702277
70.212986
72.015365
77.253603
81.243935
82.793612
84.148681
84.886271
85.403222
85.899768
86.492060
87.165100
88.207150
88.887308
89.774070
89.423896
88.900271
87.687162
86.801893
86.263778
85.699645
85.196223
84.744437
84.040227
82.369643
80.248624
78.569091
67.783469
71.904666
88.491211
88.648872
89.136980
89.598222
85.033095
83.233561
83.033603
84.140023
84.737968
85.179114
85.205450
85.300571
85.680539
86.474817
87.430762
88.275730
89.098169
89.660017
88.164397
87.247862
86.624861
80.915601
85.208183
85.974283
85.327416
84.646891
83.860944
71.064298
75.299252
79.237688
77.373310
85.992026
88.136283
68.134007
72.022529
79.285793
81.812221
83.441705
84.128909
84.505833
85.054882
85.674007
86.348916
87.009050
87.802786
88.480687
89.239489
89.728592
88.507705
87.619037
86.863264
86.101060
85.405003
84.891314
84.091591
82.322909
79.446595
67.590928
70.591978
86.265913
84.947707
82.068179
84.346559
89.797592
89.618106
89.654527
88.357930
89.863862
79.920917
73.783836
88.237394
87.150989
88.263023
84.964408
83.104431
89.639035
89.832633
85.828351
84.340221
74.447681
80.948610
79.940247
81.383424
68.417303
72.324506
89.405329
88.651520
69.840128
75.042615
68.181030
75.614826
82.836942
86.054906
87.169902
88.398901
82.447678
84.685569
88.673503
89.772875
88.556919
87.306001
86.208345
85.407896
82.749533
80.328333
88.301853
88.735451
86.477785
88.482763
69.629529
75.562203
68.594018
74.284941
84.416374
80.241159
84.342458
87.526869
89.855305
89.878864
73.424512
79.154452
69.686960
77.414013
89.790630
89.096316
87.400791
85.872993
82.100999
73.279463
80.553776
82.518295
71.459923
77.203884
84.056374
85.732698
84.589159
86.926386
88.560350
89.519646
89.718982
89.739462
86.233584
84.810152
89.557705
84.690077
89.764930
89.917377
88.833806
86.983641
84.632399
87.160631
85.626285
70.914142
79.028233
89.737604
86.493934
85.050444
70.652425
78.758931
78.853019
74.689941
88.991471
89.033276
89.257856
89.441455
89.573634
89.109861
88.685916
88.830695
88.986323
81.674296
76.531187
89.387961
89.651651
79.992895
75.380506
89.124205
87.496538
79.619586
78.124464
68.051337
73.563832
88.191958
87.008821
77.417945
86.914793
86.914793
88.676637
89.286827
89.425287
89.447167
89.581740
89.744930
89.935878
89.570789
89.372959
89.393070
89.540090
89.925652
89.850270
89.768267
89.666391
89.281923
88.208495
88.208495
71.812262
89.799482
88.155565
71.527700
79.159154
83.702884
86.659056
88.983493
89.479675
88.579826
87.431729
85.735108
82.074081
85.609837
84.220854
81.716823
80.612354
69.281061
71.850211
86.937010
88.670731
78.876082
84.114944
85.294525
87.116957
89.436441
89.126064
88.468137
87.183537
85.546766
82.881028
80.575380
88.109837
86.778588
65.933233
66.197592
88.393348
88.649454
88.904033
86.458082
87.760199
80.440358
81.884635
83.653280
84.907202
85.443610
86.552436
88.584962
89.016644
89.452651
89.726227
87.873652
86.272624
84.358860
81.992776
78.528526
87.392744
69.380939
75.546439
64.791384
66.669162
87.101869
88.713559
73.609489
75.893063
79.010315
81.626802
83.904579
86.194784
87.757439
89.006719
89.305679
89.662976
89.814457
88.487262
86.874846
84.634852
82.185403
79.630156
76.504886
73.802365
85.064443
86.474812
73.515342
72.249950
83.724896
67.032623
73.686235
82.477311
86.853582
89.226834
88.681833
82.143508
80.549694
88.991306
88.933611
72.362354
68.723560
89.435659
89.455622
69.506930
70.393509
87.394131
89.028615
78.446412
83.869867
86.701782
89.039111
88.855572
86.845490
83.864005
78.571833
84.171764
86.287441
68.588123
72.932820
71.684875
79.140810
81.250597
83.530770
85.971247
88.010229
89.608397
89.141130
87.654263
85.677375
83.433137
80.759646
82.038494
68.828739
72.679137
88.955115
89.901568
75.881794
83.381377
75.664774
86.391555
88.141689
88.728386
89.401585
89.306713
87.986608
86.004802
86.024549
84.319458
85.390206
70.777134
73.937222
74.264911
74.731048
87.748680
83.840640
80.795439
85.912872
88.527054
89.967840
88.940588
88.002249
86.174035
81.546582
70.757543
74.814783
72.594395
75.609389
74.801498
85.633053
88.098501
85.691095
84.855749
89.954604
83.825702
75.112406
84.358151
69.462882
83.095046
72.530700
77.435633
74.566960
83.288364
85.853066
86.953656
88.444466
89.162138
89.450748
89.859710
89.523439
88.739143
87.300634
87.300634
79.360887
77.025819
69.974242
87.065117
85.481573
84.209409
86.401474
80.911329
79.920917
88.231722
89.208766
68.973374
89.489891
89.964084
89.355938
88.518506
68.273232
74.801971
80.325894
82.489073
87.217152
82.277748
80.890703
78.750351
72.531728
76.524826
84.767032
86.545129
84.160760
87.530784
88.752970
89.854339
89.909462
89.930345
89.680589
89.651952
85.715359
87.260200
89.563287
88.496700
87.501136
85.469744
86.749961
89.427926
71.465432
79.174053
84.790907
86.757918
87.880847
89.058289
89.539506
89.589507
83.805793
81.621619
89.784656
89.951771
89.836737
89.124868
87.816154
88.868911
85.524843
73.727437
81.189751
77.900254
78.740416
86.629213
88.038018
88.994283
89.497881
89.883730
89.270253
88.312262
86.559932
69.777830
78.378924
83.574218
78.979201
88.441328
68.644859
73.935108
82.469413
85.419000
87.221718
88.825322
89.685289
89.894054
88.991328
87.401958
85.616685
82.558149
86.250205
72.939499
72.386591
78.988378
83.866466
86.313597
88.013721
89.233474
89.846402
88.415056
86.609344
84.098925
79.121687
72.966478
72.429970
70.122772
85.954808
83.002965
85.258692
88.475248
87.068542
87.713697
89.089120
89.704004
88.068112
89.396730
88.407116
85.451311
83.122398
82.932907
80.169926
87.910405
88.872737
73.747057
75.125135
83.867445
81.372689
80.757829
85.542382
87.127998
88.150091
81.786132
85.780279
84.334856
74.687521
89.866830
89.950609
84.517287
85.586404
86.072902
87.888261
88.789450
84.173653
80.411791
71.897928
74.846719
87.328476
88.397938
85.970133
84.603811
88.544279
89.802870
74.991632
88.475350
89.802870
87.714448
89.216234
88.270298
87.492285
81.686606
82.695851
86.100872
84.299499
71.248796
71.233454
89.100009
88.296251
87.624773
83.757824
85.349598
87.331837
88.282134
89.185205
83.292689
78.719282
88.439446
89.339648
88.465958
87.821522
87.144583
86.406942
84.911412
80.548718
78.776297
88.622676
87.788075
68.736317
73.442876
80.902755
80.551888
85.498153
88.189878
89.299101
89.921230
89.905149
89.999281
89.781747
89.669329
73.936147
89.719347
80.218374
84.409838
89.750557
89.638019
89.558632
89.664638
89.781654
89.389415
80.336100
74.484225
84.313020
82.150851
89.908311
88.844095
72.359404
82.579479
89.963467
89.954901
89.818735
84.896916
89.761738
89.787645
79.068242
71.510982
88.042185
86.088605
87.398192
77.234282
72.902902
69.259533
79.952433
84.993867
87.550175
89.378383
88.884520
87.294830
84.878187
80.002521
72.987270
87.767032
80.487144
81.591898
89.228071
88.325332
89.087836
89.701433
87.597749
83.799508
69.287028
72.829710
80.744302
80.681063
89.254310
88.735153
85.435567
87.207253
88.050133
89.139053
69.350104
89.139053
89.038773
81.750823
89.038773
88.061920
89.673353
89.738433
81.825260
81.891538
86.145802
84.613183
86.674954
74.465939
70.665033
88.439884
89.212885
80.084656
82.549899
84.046210
83.181191
87.561694
88.689102
82.408539
84.848478
89.485049
89.571146
89.582639
88.752770
87.592835
68.592151
75.578887
71.946911
80.597202
67.646258
71.711568
87.138783
88.123575
73.692730
78.675402
80.709621
88.279348
85.260481
84.383916
74.411211
72.901415
79.517464
81.174527
83.724393
86.067544
86.562879
85.649970
88.187768
89.137992
89.451287
75.030813
79.517464
84.474969
82.468251
89.133181
72.796945
73.670024
89.925887
89.505097
81.436051
83.889633
85.733623
80.594171
82.362289
89.614655
88.200780
89.004997
87.496300
86.912853
85.591518
83.785205
81.574620
86.781381
74.050260
73.207163
81.869968
78.413843
87.268187
76.632517
88.609444
79.399790
87.805878
83.076276
83.950203
81.686187
68.210981
74.916950
77.194835
76.839603
88.416201
88.412639
88.744384
89.463470
89.634558
89.739456
89.972939
89.811460
89.619989
88.841148
86.255403
88.014593
89.274083
88.986387
77.136941
76.821631
83.950133
83.618644
87.927241
89.449405
89.808285
89.857552
89.992314
89.923492
89.529847
88.005656
83.680088
80.595452
79.640804
81.374742
82.187728
83.681116
85.564183
70.788948
78.727840
89.087433
89.693001
88.503159
88.679158
88.919048
89.392345
89.737013
89.609307
89.396339
89.145839
89.159583
89.234561
89.611186
89.573705
88.936110
87.464677
85.435343
88.986900
88.963627
81.206440
83.795078
82.197232
84.884961
79.754522
67.766076
72.866657
88.759420
88.689330
88.748535
89.267716
89.604413
89.915037
89.964879
89.892639
89.662060
89.668205
89.733668
89.944542
89.386814
88.821024
88.626580
88.763681
87.898659
82.932359
80.647556
88.916019
84.753451
87.134417
89.476379
89.111941
89.260226
89.348292
88.594761
68.570591
75.586751
87.641687
85.956380
84.054460
82.578525
84.811313
82.047914
86.941450
68.002110
88.381442
73.791031
78.710515
69.309899
74.401878
86.375225
87.681208
89.049908
84.607279
83.951987
89.551697
88.476958
89.289510
88.550985
87.595358
86.093555
81.679499
70.787717
81.406903
69.207436
69.705011
78.636270
80.990456
73.128626
81.941337
79.230034
82.876623
85.054425
86.222619
87.365352
78.665895
81.011440
88.563721
89.376959
88.172346
87.323053
85.795390
83.443609
79.179974
83.077151
75.683894
70.728957
71.380586
88.137524
86.254636
89.824363
89.043105
83.592187
80.292395
82.370160
87.234268
88.429068
75.408393
89.536503
82.851623
83.812021
84.065993
84.316032
69.449866
73.067706
76.055157
81.307999
70.062427
78.132739
87.280191
88.919956
89.856282
79.207456
82.238716
72.827162
79.755645
71.093765
71.583160
79.507715
84.349991
86.522644
87.890300
89.154091
89.633126
88.228528
86.688099
84.580855
80.034729
71.258943
70.523278
85.771976
82.245759
88.306269
82.570186
84.854502
86.954555
89.162052
89.515519
88.461291
76.181182
86.624383
69.318441
84.458695
82.552030
81.366500
80.768949
85.492556
68.869909
71.980247
82.612438
79.873850