# vtk DataFile Version 3.0
Dislocation network (FCC crystal) exported from OpenDiS
ASCII
DATASET UNSTRUCTURED_GRID
POINTS 4410 FLOAT
0.00000000e+00 0.00000000e+00 0.00000000e+00
1.95620000e+04 0.00000000e+00 0.00000000e+00
0.00000000e+00 1.95620000e+04 0.00000000e+00
0.00000000e+00 0.00000000e+00 1.95620000e+04
1.95620000e+04 1.95620000e+04 0.00000000e+00
1.95620000e+04 0.00000000e+00 1.95620000e+04
0.00000000e+00 1.95620000e+04 1.95620000e+04
1.95620000e+04 1.95620000e+04 1.95620000e+04
2.20595102e+03 6.38075202e+03 1.28216790e+04
2.24958311e+03 6.34716997e+03 1.28317290e+04
2.20595102e+03 6.38075202e+03 1.28216790e+04
2.27414088e+03 6.43062813e+03 1.28033652e+04
6.82520419e+03 7.21823334e+03 5.64560713e+03
6.93585884e+03 7.16675948e+03 5.58642633e+03
6.82520419e+03 7.21823334e+03 5.64560713e+03
6.70661867e+03 7.27540904e+03 5.70701694e+03
2.45333707e+03 6.22207625e+03 1.29103892e+04
2.36273330e+03 6.27433708e+03 1.28720463e+04
2.45333707e+03 6.22207625e+03 1.29103892e+04
2.57437993e+03 6.15637150e+03 1.29657273e+04
1.75780027e+04 8.20821217e+03 5.91340589e+03
1.74739085e+04 8.14721042e+03 5.87031337e+03
1.75780027e+04 8.20821217e+03 5.91340589e+03
1.76260204e+04 8.23635171e+03 5.93328407e+03
2.69449423e+03 6.09494369e+03 1.30244138e+04
2.57437993e+03 6.15637150e+03 1.29657273e+04
2.69449423e+03 6.09494369e+03 1.30244138e+04
2.80522606e+03 6.15202514e+03 1.29707635e+04
9.80525319e+03 1.81884978e+04 9.67490194e+03
9.87437926e+03 1.82044550e+04 9.72807073e+03
9.80525319e+03 1.81884978e+04 9.67490194e+03
9.72546093e+03 1.81664706e+04 9.61713684e+03
2.93396487e+03 6.22201974e+03 1.29120192e+04
2.80522606e+03 6.15202514e+03 1.29707635e+04
2.93396487e+03 6.22201974e+03 1.29120192e+04
3.02570855e+03 6.27483829e+03 1.28730941e+04
4.65404724e+03 1.34935922e+04 1.04201996e+04
4.69937238e+03 1.34514581e+04 1.05076590e+04
4.65404724e+03 1.34935922e+04 1.04201996e+04
4.58236409e+03 1.35545360e+04 1.02875728e+04
3.18303743e+03 6.38185076e+03 1.28227777e+04
3.14288424e+03 6.35031119e+03 1.28313913e+04
3.18303743e+03 6.38185076e+03 1.28227777e+04
3.11485693e+03 6.43221544e+03 1.28049619e+04
6.95429178e+03 4.20586212e+03 9.48032975e+03
7.04319424e+03 4.23748122e+03 9.53761311e+03
6.95429178e+03 4.20586212e+03 9.48032975e+03
6.87434603e+03 4.18470880e+03 9.42153732e+03
2.95344614e+03 6.52823136e+03 1.27395670e+04
3.11485693e+03 6.43221544e+03 1.28049619e+04
2.95344614e+03 6.52823136e+03 1.27395670e+04
2.81765546e+03 6.60220754e+03 1.26777525e+04
2.81765546e+03 6.60220754e+03 1.26777525e+04
2.69449423e+03 6.66589150e+03 1.26182752e+04
2.69449423e+03 6.66589150e+03 1.26182752e+04
2.56269761e+03 6.59852297e+03 1.26827033e+04
2.56269761e+03 6.59852297e+03 1.26827033e+04
2.42576292e+03 6.52376174e+03 1.27448768e+04
2.42576292e+03 6.52376174e+03 1.27448768e+04
2.27414088e+03 6.43062813e+03 1.28033652e+04
7.79698277e+03 4.21078334e+03 9.47350722e+03
7.87639230e+03 4.18949411e+03 9.41538692e+03
7.79698277e+03 4.21078334e+03 9.47350722e+03
7.70320176e+03 4.24421207e+03 9.53385950e+03
1.68050128e+04 1.71470778e+04 1.28449491e+04
1.67211226e+04 1.71541992e+04 1.29217179e+04
1.68050128e+04 1.71470778e+04 1.28449491e+04
1.66922678e+04 1.71381127e+04 1.27411691e+04
6.38580102e+03 1.75808974e+03 7.52159181e+03
6.30505442e+03 1.69899129e+03 7.38174675e+03
6.38580102e+03 1.75808974e+03 7.52159181e+03
6.47519161e+03 1.81114635e+03 7.66403901e+03
1.66922678e+04 1.71381127e+04 1.27411691e+04
1.65489313e+04 1.71176818e+04 1.26182636e+04
1.65489313e+04 1.71176818e+04 1.26182636e+04
1.64158342e+04 1.70905425e+04 1.25123057e+04
1.79405457e+04 8.45386970e+03 6.03029130e+03
1.79445000e+04 8.45722083e+03 6.03089448e+03
1.79405457e+04 8.45386970e+03 6.03029130e+03
1.78924662e+04 8.41591134e+03 6.02017017e+03
1.61979326e+04 1.70298512e+04 1.23550955e+04
1.63094340e+04 1.70632480e+04 1.24332001e+04
1.61979326e+04 1.70298512e+04 1.23550955e+04
1.60664988e+04 1.69844622e+04 1.22690506e+04
1.60664988e+04 1.69844622e+04 1.22690506e+04
1.59360269e+04 1.69331819e+04 1.21898591e+04
1.59360269e+04 1.69331819e+04 1.21898591e+04
1.58163530e+04 1.68816597e+04 1.21217074e+04
1.58163530e+04 1.68816597e+04 1.21217074e+04
1.56977739e+04 1.68271519e+04 1.20576360e+04
1.56977739e+04 1.68271519e+04 1.20576360e+04
1.55864493e+04 1.67733393e+04 1.20001241e+04
1.55864493e+04 1.67733393e+04 1.20001241e+04
1.54893915e+04 1.67249299e+04 1.19514757e+04
1.54893915e+04 1.67249299e+04 1.19514757e+04
1.54204365e+04 1.66897945e+04 1.19176561e+04
1.54204365e+04 1.66897945e+04 1.19176561e+04
1.53466708e+04 1.67257407e+04 1.19554756e+04
1.53466708e+04 1.67257407e+04 1.19554756e+04
1.52513004e+04 1.67720964e+04 1.20044904e+04
1.52513004e+04 1.67720964e+04 1.20044904e+04
1.51406320e+04 1.68245558e+04 1.20626993e+04
1.51406320e+04 1.68245558e+04 1.20626993e+04
1.50179579e+04 1.68800397e+04 1.21298895e+04
1.50179579e+04 1.68800397e+04 1.21298895e+04
1.48856807e+04 1.69360288e+04 1.22061777e+04
5.48078593e+03 9.94158727e+03 1.25801183e+04
5.59209683e+03 9.87381916e+03 1.26236611e+04
5.48078593e+03 9.94158727e+03 1.25801183e+04
5.34925432e+03 1.00279012e+04 1.25349007e+04
1.47633067e+04 1.69834730e+04 1.22811074e+04
1.48856807e+04 1.69360288e+04 1.22061777e+04
1.47633067e+04 1.69834730e+04 1.22811074e+04
1.46404562e+04 1.70250319e+04 1.23623990e+04
1.46404562e+04 1.70250319e+04 1.23623990e+04
1.45698305e+04 1.70462853e+04 1.24117714e+04
1.46848387e+04 1.03971212e+04 1.27859139e+04
1.46940516e+04 1.03671993e+04 1.28250486e+04
1.46848387e+04 1.03971212e+04 1.27859139e+04
1.46688036e+04 1.04217075e+04 1.27452924e+04
5.34925432e+03 1.00279012e+04 1.25349007e+04
5.26654748e+03 1.00921678e+04 1.25164604e+04
5.01157268e+03 4.81586189e+03 1.20927153e+04
5.07830860e+03 4.67849727e+03 1.21633441e+04
5.01157268e+03 4.81586189e+03 1.20927153e+04
4.97358638e+03 4.88970388e+03 1.20568597e+04
1.61888884e+03 1.06343519e+03 7.26121507e+03
1.58912074e+03 1.02985613e+03 7.32456223e+03
1.61888884e+03 1.06343519e+03 7.26121507e+03
1.64989004e+03 1.10030524e+03 7.19334383e+03
1.40358603e+04 1.71447109e+04 1.28473160e+04
1.40988704e+04 1.71506860e+04 1.29043511e+04
1.40358603e+04 1.71447109e+04 1.28473160e+04
1.41460837e+04 1.71351264e+04 1.27466771e+04
1.40988704e+04 1.71506860e+04 1.29043511e+04
1.41923624e+04 1.71608622e+04 1.29876669e+04
1.42788179e+04 1.71745697e+04 1.30604148e+04
1.41923624e+04 1.71608622e+04 1.29876669e+04
1.42788179e+04 1.71745697e+04 1.30604148e+04
1.44176811e+04 1.72043213e+04 1.31695265e+04
1.44176811e+04 1.72043213e+04 1.31695265e+04
1.45698640e+04 1.72457507e+04 1.32802800e+04
1.45698640e+04 1.72457507e+04 1.32802800e+04
1.47224097e+04 1.72966209e+04 1.33819555e+04
1.47224097e+04 1.72966209e+04 1.33819555e+04
1.48575400e+04 1.73484269e+04 1.34652798e+04
1.48575400e+04 1.73484269e+04 1.34652798e+04
1.49719625e+04 1.73964471e+04 1.35316821e+04
1.49719625e+04 1.73964471e+04 1.35316821e+04
1.50780589e+04 1.74436959e+04 1.35905296e+04
1.50780589e+04 1.74436959e+04 1.35905296e+04
1.51805118e+04 1.74915289e+04 1.36451496e+04
1.51805118e+04 1.74915289e+04 1.36451496e+04
1.52730828e+04 1.75362738e+04 1.36929757e+04
1.52730828e+04 1.75362738e+04 1.36929757e+04
1.53544963e+04 1.75764904e+04 1.37341726e+04
1.53544963e+04 1.75764904e+04 1.37341726e+04
1.54204365e+04 1.76091071e+04 1.37674961e+04
1.54204365e+04 1.76091071e+04 1.37674961e+04
1.54794998e+04 1.75793922e+04 1.37381477e+04
1.54794998e+04 1.75793922e+04 1.37381477e+04
1.55619561e+04 1.75381876e+04 1.36968961e+04
1.55619561e+04 1.75381876e+04 1.36968961e+04
1.56571234e+04 1.74917415e+04 1.36481749e+04
1.56571234e+04 1.74917415e+04 1.36481749e+04
1.57602677e+04 1.74431473e+04 1.35936248e+04
1.57602677e+04 1.74431473e+04 1.35936248e+04
1.58644189e+04 1.73964379e+04 1.35361829e+04
1.58644189e+04 1.73964379e+04 1.35361829e+04
1.59777020e+04 1.73486166e+04 1.34707211e+04
1.59777020e+04 1.73486166e+04 1.34707211e+04
1.61125813e+04 1.72966664e+04 1.33877920e+04
1.61125813e+04 1.72966664e+04 1.33877920e+04
1.62645420e+04 1.72459438e+04 1.32865540e+04
1.62645420e+04 1.72459438e+04 1.32865540e+04
1.64133697e+04 1.72054037e+04 1.31782663e+04
1.64133697e+04 1.72054037e+04 1.31782663e+04
1.65504601e+04 1.71776404e+04 1.30689393e+04
1.65504601e+04 1.71776404e+04 1.30689393e+04
1.66139796e+04 1.71681313e+04 1.30149288e+04
1.67211226e+04 1.71541992e+04 1.29217179e+04
1.66139796e+04 1.71681313e+04 1.30149288e+04
9.51955893e+03 1.58658571e+04 3.40623942e+03
9.51334730e+03 1.58592514e+04 3.40663342e+03
9.51955893e+03 1.58658571e+04 3.40623942e+03
9.59530629e+03 1.57827207e+04 3.39885039e+03
1.91459331e+03 1.16784580e+04 3.38012833e+03
1.94202015e+03 1.17455115e+04 3.28564797e+03
1.91459331e+03 1.16784580e+04 3.38012833e+03
1.89288240e+03 1.16111118e+04 3.46918537e+03
1.49673274e+04 1.33439468e+04 1.10249092e+04
1.48734968e+04 1.34154863e+04 1.10026181e+04
1.49673274e+04 1.33439468e+04 1.10249092e+04
1.50618460e+04 1.32763815e+04 1.10518626e+04
4.36887116e+03 1.36812383e+04 1.10504405e+04
4.32599499e+03 1.37132441e+04 1.09755585e+04
4.36887116e+03 1.36812383e+04 1.10504405e+04
4.41246518e+03 1.36548050e+04 1.11204678e+04
9.16711155e+03 1.54419327e+04 3.47771636e+03
9.25905811e+03 1.55627769e+04 3.44881876e+03
9.16711155e+03 1.54419327e+04 3.47771636e+03
9.06340551e+03 1.52956996e+04 3.52024344e+03
9.06340551e+03 1.52956996e+04 3.52024344e+03
8.96904290e+03 1.51513463e+04 3.57023419e+03
8.96904290e+03 1.51513463e+04 3.57023419e+03
8.89460027e+03 1.50281161e+04 3.61902168e+03
8.89460027e+03 1.50281161e+04 3.61902168e+03
8.85631604e+03 1.49625805e+04 3.64627307e+03
8.81981148e+03 1.48985548e+04 3.67379429e+03
8.85631604e+03 1.49625805e+04 3.64627307e+03
8.81981148e+03 1.48985548e+04 3.67379429e+03
8.75771555e+03 1.47858599e+04 3.72439322e+03
8.75771555e+03 1.47858599e+04 3.72439322e+03
8.69772194e+03 1.46718716e+04 3.77838793e+03
8.69772194e+03 1.46718716e+04 3.77838793e+03
8.64440625e+03 1.45677681e+04 3.82917574e+03
8.64440625e+03 1.45677681e+04 3.82917574e+03
8.59565938e+03 1.44717355e+04 3.87646148e+03
8.59565938e+03 1.44717355e+04 3.87646148e+03
[...]
CELL_DATA 2202
SCALARS SlipSystemID int 1
LOOKUP_TABLE default
0
10
7
1
1
10
10
4
4
10
7
4
4
7
7
6
6
7
10
4
4
10
10
10
7
7
7
1
1
1
4
12
12
4
4
4
4
4
4
4
4
4
4
4
4
1
1
1
1
1
10
10
1
1
1
6
6
10
2
2
3
3
4
1
4
4
4
4
4
4
4
4
4
4
4
4
1
1
1
1
1
1
1
1
1
1
1
1
5
11
3
3
10
10
6
6
5
5
5
5
5
5
5
5
5
5
11
11
11
11
11
9
9
11
11
11
11
10
10
11
11
4
4
11
5
5
5
5
5
5
5
5
5
5
5
5
11
11
11
11
11
11
11
11
11
11
11
8
2
10
10
2
2
9
9
12
2
2
5
5
8
1
1
4
4
7
7
1
1
1
1
1
2
8
6
6
4
4
2
2
2
2
2
7
7
8
2
8
8
8
8
8
8
7
7
11
11
6
9
5
5
5
5
6
6
6
6
9
9
9
9
9
9
9
9
9
4
4
7
9
6
4
4
6
6
6
6
6
6
4
4
9
9
9
9
9
9
9
2
2
3
12
12
3
3
4
4
8
8
3
3
3
3
3
3
12
12
12
7
7
12
12
10
10
9
9
7
10
10
12
12
3
12
3
3
3
3
3
3
3
3
3
12
12
12
12
12
12
12
12
12
10
7
5
5
10
10
10
10
10
10
10
7
7
7
7
7
10
10
7
10
3
3
10
10
10
10
10
10
7
7
7
7
7
10
10
1
12
12
3
11
11
4
4
4
4
4
4
4
4
1
1
1
1
1
1
1
2
9
9
4
1
6
6
4
4
4
4
4
4
4
4
4
1
1
1
1
1
1
1
1
1
2
2
5
11
4
4
5
5
5
11
8
8
5
5
8
7
7
11
5
9
9
5
5
5
5
11
11
11
11
9
9
8
2
7
7
2
2
2
2
2
8
8
8
8
8
7
2
8
12
12
4
9
9
2
2
2
2
8
8
8
3
3
8
8
4
4
6
9
8
8
6
6
6
6
9
9
9
9
11
11
9
6
4
6
6
3
3
6
1
12
12
4
5
5
12
3
3
3
3
3
3
3
12
12
12
12
12
8
8
3
3
3
3
3
5
4
4
8
8
3
12
6
6
1
1
11
11
12
12
2
2
10
7
6
6
10
10
10
10
10
10
7
7
1
1
7
7
7
7
1
1
7
10
8
8
10
10
10
10
10
7
7
7
7
7
1
1
1
8
8
8
11
4
4
4
4
1
1
1
1
11
11
1
1
3
1
4
9
4
4
4
4
4
1
1
1
1
1
9
5
11
5
5
5
5
5
11
11
11
11
11
11
5
2
2
5
5
5
5
9
9
5
5
11
11
6
6
11
11
11
11
8
8
2
8
10
10
2
2
2
8
8
12
12
2
12
12
2
2
2
8
8
8
6
9
11
11
5
5
6
6
2
2
9
5
5
9
9
5
9
5
5
9
6
3
3
6
6
6
6
6
6
9
6
9
9
9
9
9
2
2
2
10
10
3
12
3
3
3
3
3
3
3
3
2
12
8
12
12
12
12
12
12
12
3
2
2
2
2
3
3
5
3
3
3
3
12
12
3
2
2
12
7
7
11
10
7
10
10
10
10
7
7
7
7
7
12
10
7
7
10
10
7
7
4
1
4
7
4
9
9
4
4
4
4
4
4
1
4
4
1
1
1
1
1
10
10
4
1
9
9
4
4
10
10
4
4
11
11
4
1
3
1
1
3
3
10
10
11
11
11
11
11
11
11
11
11
11
5
9
5
5
5
11
11
7
5
11
3
7
11
11
6
2
12
12
2
2
2
3
7
6
6
8
8
8
8
11
2
8
10
10
10
3
8
2
8
8
3
3
2
2
9
6
11
11
6
6
6
6
9
9
9
9
5
5
3
3
6
9
10
6
6
6
6
6
9
9
9
9
9
8
8
12
2
10
6
6
3
3
3
3
3
3
3
12
12
12
12
12
12
2
2
12
12
10
7
7
3
12
3
3
3
3
3
3
3
3
3
3
12
12
12
12
12
12
12
12
12
7
5
10
10
10
4
4
10
7
4
4
7
7
7
2
2
6
6
10
12
10
10
10
10
10
10
7
7
10
7
10
10
7
7
7
7
7
7
7
7
1
4
11
11
1
1
4
4
4
4
4
4
4
4
1
4
1
1
1
1
1
6
6
4
1
11
11
4
4
5
5
1
1
4
4
5
5
1
1
1
1
7
5
11
5
5
5
6
6
5
11
5
11
11
10
10
5
5
5
5
5
5
11
11
11
11
11
2
8
6
3
2
2
2
2
2
8
8
8
4
4
8
8
8
8
4
4
8
2
2
2
2
2
2
2
2
8
8
8
8
8
8
8
8
4
9
6
6
6
6
6
6
9
9
9
9
9
9
9
6
10
10
6
5
5
11
11
6
6
9
7
7
4
6
6
9
9
1
1
12
3
2
3
3
3
3
12
12
12
12
12
2
12
3
6
3
3
12
12
3
3
12
11
11
12
12
7
7
10
7
2
2
10
10
10
10
7
7
7
7
12
7
9
8
8
6
10
7
7
7
11
11
7
7
3
3
4
1
4
4
4
4
1
1
1
1
3
3
4
1
7
4
4
8
8
7
9
9
1
1
5
11
10
10
5
5
5
5
6
5
11
1
1
5
10
11
5
5
5
5
10
11
11
11
7
8
8
2
2
2
8
8
8
8
8
8
8
8
4
4
2
8
4
2
2
2
9
9
2
2
2
8
9
8
8
8
8
8
1
6
4
6
6
6
6
9
9
9
1
10
10
9
6
8
6
6
6
6
7
9
12
3
3
3
3
3
3
12
12
12
12
12
12
12
1
1
3
12
1
1
3
6
6
1
3
8
8
4
4
12
12
12
6
10
10
10
10
10
10
10
10
10
7
7
7
7
7
7
7
7
7
3
3
7
9
3
10
10
3
3
7
7
7
7
9
5
5
4
7
4
8
8
5
5
1
4
1
2
2
4
4
4
4
4
4
4
1
1
1
1
11
11
5
11
5
5
5
5
5
5
5
11
11
11
11
11
11
11
5
5
5
9
9
5
5
5
5
5
5
7
7
5
11
10
10
11
11
9
9
11
12
12
11
11
2
8
11
2
2
2
2
5
5
2
8
8
8
8
8
8
5
2
8
6
6
5
5
2
8
12
12
8
8
6
6
6
6
6
6
6
6
9
9
9
9
9
9
5
7
7
6
6
6
4
7
1
1
12
7
7
3
3
3
12
3
3
3
12
12
12
12
12
1
1
12
3
2
2
3
3
3
3
3
12
12
12
12
1
1
9
9
7
9
10
10
5
5
7
1
7
3
3
10
10
10
10
10
10
8
8
7
7
7
7
7
1
10
4
4
4
1
11
11
10
10
1
4
2
10
10
11
4
4
4
11
11
12
12
9
1
1
9
11
5
5
9
9
5
5
5
5
5
11
11
11
11
11
4
4
5
7
5
5
5
5
5
5
5
11
11
11
11
11
11
11
2
2
2
2
8
8
8
8
7
2
8
11
2
2
8
8
1
8
8
8
8
8
9
8
12
12
6
9
5
5
6
1
6
9
9
9
3
12
5
3
3
1
3
3
12
12
3
3
2
3
12
3
3
3
3
3
3
12
12
12
12
12
7
9
10
7
7
10
7
9
10
7
7
7
7
4
1
4
4
4
4
1
1
1
1
1
12
4
3
1
1
1
11
11
11
5
11
3
3
5
4
4
5
10
11
11
11
10
10
5
5
5
5
5
5
11
11
7
7
11
11
11
11
5
8
5
5
2
2
2
8
2
11
8
4
4
2
2
2
2
2
2
8
8
8
8
8
9
6
1
6
6
6
9
9
9
1
1
6
6
6
6
6
6
9
9
9
9
9
3
12
7
3
5
12
12
12
12
6
10
10
12
3
3
3
3
12
12
12
12
10
10
10
10
10
10
7
11
11
10
10
9
10
7
3
6
6
4
4
4
4
1
1
1
1
4
2
2
4
4
4
4
1
1
1
1
3
5
11
3
11
5
5
12
12
12
8
8
5
11
5
5
5
5
11
11
11
11
2
2
2
2
2
2
8
8
8
4
4
2
8
2
2
2
8
8
1
1
1
1
6
9
6
6
6
6
9
9
9
9
9
6
11
11
6
11
3
9
12
3
12
3
4
3
12
12
12
12
10
10
3
3
8
3
3
8
12
12
12
7
10
10
10
10
7
10
7
12
12
10
10
10
6
10
7
2
2
7
7
7
1
4
4
4
4
1
1
1
6
1
1
1
7
5
5
5
5
5
11
11
11
11
11
11
11
11
4
4
11
2
5
5
5
5
11
11
11
11
1
2
9
2
2
2
2
2
2
2
2
8
8
8
9
8
8
2
2
2
2
8
8
8
8
8
8
8
8
6
9
6
9
9
8
8
8
6
9
8
6
9
9
12
3
3
3
12
4
3
3
3
3
3
3
12
12
12
12
12
7
10
10
10
7
7
7
7
7
6
7
10
10
10
10
10
10
10
10
7
12
7
7
7
7
7
7
1
8
8
4
4
4
4
4
1
1
1
1
1
1
1
1
1
9
4
4
4
4
1
1
1
1
1
1
8
1
11
1
5
5
5
5
11
11
11
11
11
5
11
2
2
5
5
11
11
11
11
11
8
8
2
2
2
2
2
8
8
8
8
8
2
2
8
8
8
1
1
9
3
6
9
6
9
9
12
9
6
6
6
9
9
9
9
3
12
3
3
3
3
12
12
12
3
3
12
6
12
7
2
10
10
10
7
7
7
7
11
10
7
10
10
10
10
10
10
10
7
7
7
7
7
7
7
4
10
4
4
4
4
1
1
1
1
1
1
4
1
10
5
5
11
4
3
5
5
5
11
11
11
4
1
4
1
9
7
5
8
5
12
10
7
10
2
2
2
8
1
10
1
5
12
11
1
9
8
8
7
12
12
8
6
11
6
6
8
6
7
11
12
5
8
13
8
6
9
12
2
SCALARS DislocationType int 1
LOOKUP_TABLE default
0
2
3
3
3
3
3
3
3
3
3
2
3
3
3
3
3
2
2
3
2
3
3
3
3
3
3
3
3
2
2
3
3
2
2
2
2
3
3
3
3
3
3
3
3
3
3
3
3
3
3
3
3
3
3
2
3
2
3
3
3
3
2
2
2
2
2
3
3
3
3
3
3
3
3
3
3
3
3
3
3
3
3
3
3
2
2
2
2
2
3
2
2
3
3
3
2
3
3
3
3
3
3
3
3
3
3
3
3
3
3
3
3
3
3
3
2
2
2
2
2
3
3
2
2
2
2
2
3
3
3
3
3
3
3
3
3
3
3
3
3
3
3
3
2
2
2
2
2
3
3
3
3
3
3
3
3
3
2
2
3
3
3
3
3
3
3
3
3
2
3
2
2
2
3
3
3
2
3
3
3
3
3
2
2
3
3
3
3
3
3
3
3
2
2
3
3
2
2
3
3
2
2
3
3
3
3
2
3
3
3
3
3
3
3
3
3
2
3
2
2
3
3
3
3
3
3
3
3
2
2
3
3
3
3
3
3
3
3
3
2
2
3
2
3
2
2
3
3
3
3
3
3
3
3
3
3
3
3
2
3
3
3
2
3
3
2
2
3
3
3
2
2
3
3
3
3
3
3
3
3
3
3
3
3
3
3
3
3
3
2
2
2
3
3
3
3
3
3
3
3
3
3
3
3
3
3
3
3
2
2
3
3
3
3
3
3
3
3
3
3
3
3
3
3
3
2
3
3
3
3
3
3
3
3
3
3
3
3
3
3
3
3
3
3
3
3
3
3
3
2
2
3
3
3
3
3
3
3
3
3
3
3
3
3
3
3
3
3
3
3
3
3
3
2
2
3
2
3
3
3
3
2
2
3
2
3
2
3
2
2
3
3
3
3
3
3
3
3
3
3
3
3
2
2
2
3
3
3
3
3
3
3
3
3
3
3
3
2
2
3
3
3
3
3
3
3
3
3
3
3
3
3
3
3
3
3
3
3
3
3
3
3
3
3
3
3
3
3
3
3
3
2
2
2
3
3
3
3
3
3
3
3
3
3
2
2
3
3
3
3
3
3
3
3
3
3
3
3
3
3
2
3
3
3
3
2
2
3
2
3
3
3
3
3
2
2
3
3
3
3
3
3
2
2
3
3
2
2
3
3
3
3
3
3
3
3
3
3
2
2
3
3
2
2
3
3
2
3
3
3
3
3
3
3
3
2
3
2
2
3
3
2
2
3
3
3
3
3
3
3
3
3
3
3
3
3
2
2
3
3
3
3
3
3
3
3
3
3
3
2
2
2
3
3
3
3
3
3
3
3
3
3
2
2
3
3
3
3
3
3
3
3
3
3
3
3
3
3
3
3
3
3
3
3
2
3
3
3
3
3
3
3
3
3
3
3
3
3
3
3
3
3
3
3
3
3
3
3
3
3
3
3
2
2
3
3
3
3
3
2
3
3
3
3
3
3
3
3
3
3
3
3
3
3
3
3
3
3
3
3
3
3
3
2
3
2
2
2
3
3
3
3
3
3
3
2
3
3
3
3
3
3
3
3
2
2
3
3
3
3
3
3
3
3
3
3
3
3
3
3
3
2
3
3
3
3
2
2
3
3
3
3
3
3
3
3
2
3
3
3
3
3
3
3
3
2
2
2
3
3
3
3
3
3
3
3
2
2
3
2
2
3
3
3
3
3
3
3
2
2
3
3
3
3
3
3
3
3
3
3
3
3
2
3
3
2
2
2
3
2
3
3
3
3
3
3
3
2
2
2
3
3
3
3
3
3
3
3
3
3
3
3
3
3
2
3
3
3
3
3
2
3
3
3
3
3
3
3
3
2
2
3
3
2
3
3
3
3
3
2
3
3
3
3
3
2
2
3
3
3
3
3
3
3
3
3
3
3
3
3
3
3
3
3
3
3
3
3
3
3
3
3
3
3
2
2
2
3
3
3
3
3
3
3
3
3
3
3
3
3
3
3
3
3
3
2
3
3
3
2
2
2
2
2
3
3
3
3
3
3
3
3
3
3
3
3
3
3
2
2
2
2
3
3
3
3
3
3
3
2
3
3
3
3
3
3
2
3
2
3
2
3
3
3
3
3
3
3
3
3
3
3
3
3
3
3
3
2
2
3
2
2
3
3
2
3
3
3
3
3
3
2
3
3
3
3
3
3
3
3
3
3
3
2
2
3
3
3
3
3
3
2
2
3
3
2
3
3
2
2
3
3
2
2
2
3
3
2
3
3
3
3
3
2
3
2
2
3
3
3
3
3
3
3
3
3
3
2
2
3
3
3
3
3
3
3
3
3
3
2
3
3
3
3
3
3
3
2
2
3
3
3
3
3
3
3
3
3
3
3
3
3
3
3
2
2
3
3
3
3
3
3
3
3
3
3
3
3
2
3
2
2
3
3
2
3
3
3
3
3
3
3
2
3
3
3
3
3
3
3
3
3
3
3
3
3
3
3
3
3
3
3
2
3
2
3
3
3
3
3
3
3
3
2
3
3
3
3
2
2
3
3
3
3
3
3
3
3
3
3
2
2
2
3
3
3
3
3
3
3
2
2
3
3
3
3
2
2
3
3
3
3
3
3
3
3
3
3
2
2
3
3
3
2
2
2
3
3
3
3
2
3
3
3
3
3
3
3
3
3
3
3
3
2
3
2
2
3
3
3
3
3
3
3
3
2
3
3
3
3
3
3
3
3
3
3
3
2
3
3
2
2
2
3
3
3
3
3
3
3
3
3
2
3
3
3
3
3
3
3
3
3
3
3
3
3
3
3
3
3
3
3
2
3
3
3
3
3
3
3
3
3
3
3
3
3
3
3
3
3
3
3
3
3
3
3
2
3
3
3
3
3
3
2
3
3
3
3
3
3
3
3
3
2
2
3
3
3
3
3
3
3
3
3
3
3
3
3
3
3
2
3
3
2
3
3
3
3
3
3
3
3
2
3
3
3
3
3
3
3
3
3
2
2
3
2
2
3
3
2
3
3
3
3
3
3
3
3
3
3
2
2
3
3
3
3
3
3
3
3
3
3
3
3
3
3
3
2
3
3
3
3
3
3
3
3
3
3
3
3
3
3
3
3
3
3
3
2
2
3
3
3
2
2
2
2
3
3
3
3
3
2
3
3
3
3
3
3
3
3
2
2
2
3
3
2
3
3
3
3
3
3
3
3
3
2
3
3
3
3
3
3
3
3
3
3
2
3
2
2
3
3
3
3
3
2
2
3
3
2
2
3
3
3
3
3
3
3
3
3
3
3
3
3
2
3
3
3
3
3
3
3
3
3
3
3
3
2
2
3
3
2
3
2
3
3
3
3
2
3
3
3
2
2
3
3
3
3
3
3
3
3
3
3
2
2
2
3
3
3
3
3
3
3
3
3
2
3
2
2
2
3
3
3
3
3
2
3
3
3
3
3
2
2
2
3
3
3
3
3
3
3
3
3
3
3
3
3
3
2
2
2
2
3
3
3
3
3
3
3
3
3
3
2
2
3
3
3
3
3
3
3
3
3
2
2
3
3
3
2
2
3
3
3
3
3
3
3
3
3
3
3
3
3
3
3
3
3
3
3
3
2
3
3
3
3
2
3
3
3
3
3
3
3
3
3
3
3
3
3
3
3
3
3
3
3
3
2
3
3
3
3
2
2
3
3
3
3
3
3
2
2
3
3
3
3
3
3
3
3
2
2
3
3
3
3
3
3
2
2
2
2
3
3
3
2
3
3
3
3
3
3
3
3
3
3
3
3
3
3
3
3
3
3
3
3
3
3
3
2
2
3
3
3
3
3
3
3
3
3
3
2
3
3
3
3
3
3
3
3
3
3
2
2
3
3
3
3
3
3
3
3
3
2
3
3
3
3
3
3
3
3
3
3
2
3
2
3
3
3
3
3
3
3
3
3
3
3
3
3
3
3
3
3
3
2
2
3
3
3
3
3
3
3
2
3
3
3
3
3
3
3
3
3
3
3
3
3
3
3
2
3
3
3
3
3
3
3
3
3
3
3
3
2
2
3
3
3
3
3
2
3
3
2
2
3
3
3
3
3
3
3
3
3
3
3
3
3
3
3
3
3
3
3
2
2
3
3
3
3
3
2
3
3
3
3
3
3
3
3
3
3
3
3
3
3
2
3
3
3
2
3
3
3
2
3
3
3
3
3
3
3
3
3
3
3
3
2
3
3
3
3
3
3
2
3
3
3
3
3
3
3
2
3
3
3
3
3
3
3
3
3
3
3
3
3
3
3
3
3
3
3
3
2
3
3
3
3
3
3
3
3
3
3
3
3
3
3
3
3
2
3
3
2
3
3
3
3
3
3
3
3
3
3
2
3
3
3
3
3
3
3
3
3
3
3
3
3
3
2
2
3
3
3
3
3
3
3
3
3
3
3
3
3
3
3
3
2
3
3
3
3
3
3
3
3
2
3
3
3
3
3
2
3
3
3
3
3
3
3
3
3
3
2
3
3
3
3
3
3
3
3
3
3
2
3
3
3
3
3
3
3
3
3
3
3
3
3
3
3
2
3
3
3
3
3
3
3
3
3
3
3
3
3
2
2
2
3
3
3
3
3
3
3
3
3
3
3
3
2
2
3
3
3
3
3
3
3
3
3
3
3
2
2
3
3
3
3
3
3
3
3
3
3
2
3
3
3
3
3
3
3
3
2
3
3
3
3
3
3
3
2
3
3
3
3
3
3
3
3
3
3
3
3
3
3
3
2
3
3
3
3
3
3
3
3
3
3
3
3
3
2
3
3
3
3
3
3
3
2
3
2
2
2
2
3
3
3
3
3
3
3
3
3
3
2
2
2
3
3
3
3
3
3
3
3
3
2
3
3
3
3
3
3
3
3
3
3
3
3
3
3
3
3
2
3
3
3
2
3
3
3
3
3
3
3
3
3
3
3
3
3
3
3
2
3
3
3
3
3
3
3
3
3
3
3
2
2
3
3
3
3
3
2
3
2
2
3
3
3
3
SCALARS CharacterAngle float 1
LOOKUP_TABLE default
0.0
72.704393
75.038326
87.697286
88.819050
84.931790
87.169211
84.327301
84.327301
89.245084
88.975125
72.734984
75.501600
87.111638
85.003195
88.793256
87.323323
71.755451
74.590584
80.537555
74.793218
83.749399
87.039952
88.870279
89.262019
86.961986
82.484777
75.008942
80.588723
64.390278
64.101900
84.892793
81.622575
67.571067
71.124425
68.138634
71.516441
76.965860
79.874346
82.959081
85.413178
87.333965
88.900892
89.918583
89.368793
89.160024
89.077747
88.281926
86.846530
84.936869
82.838174
79.774395
82.611402
79.423077
77.054465
73.011187
83.070395
72.260563
89.062633
89.045616
88.010724
87.141955
64.927350
64.501490
65.692904
68.482096
71.739429
75.264829
79.115654
82.330527
84.700857
86.388412
87.809687
88.899116
89.601685
89.645419
89.794734
89.981133
89.209254
88.090570
86.595247
84.862599
82.446368
79.135600
75.274822
71.042319
67.977251
66.867777
63.047715
64.605264
76.387814
73.519156
73.141539
76.067865
85.209116
81.946993
73.236365
76.420663
79.936608
83.146049
84.448508
85.368750
86.629139
88.259638
89.196799
89.496707
89.595465
89.842741
88.778239
87.349641
85.837816
82.365705
86.754876
83.629932
80.622584
77.133511
73.531549
64.532185
68.371048
68.237215
66.631321
85.904955
88.331361
63.460398
64.674848
67.563970
71.099541
74.523237
78.104169
81.234236
83.740313
85.654413
87.178251
88.440772
89.244518
89.336125
89.469368
89.925346
89.064636
87.772333
86.129185
84.262329
81.686341
78.462645
74.823241
71.323712
67.835897
67.749562
71.671772
86.242519
85.048202
80.091254
82.585155
87.029243
88.486585
87.298440
87.689051
89.887447
67.223257
64.432451
88.171840
82.597050
85.827546
83.167562
80.817338
77.825306
81.284960
84.855884
83.114568
73.022249
79.049831
69.005439
67.522020
71.660683
86.407017
84.126709
78.322344
71.317868
79.335146
82.732245
85.201151
86.588278
88.005593
64.735702
68.926325
88.654473
89.984274
88.128129
86.848045
85.681232
84.531634
82.213901
78.661681
74.179517
74.179517
86.565197
88.710601
67.108736
70.763366
78.426561
80.325526
66.496190
72.442547
76.728047
81.501417
88.325333
89.548793
71.006522
78.970038
88.515632
85.371603
85.371603
85.404870
83.343664
80.728457
77.671504
81.485109
73.385667
80.552951
66.935845
68.259418
82.794521
84.564892
75.340517
79.387637
82.721583
85.891420
88.366758
89.166938
70.266352
70.266352
88.118160
88.218445
86.689220
84.631377
81.756869
78.666635
76.077996
86.536863
84.655605
64.805195
68.898373
88.877085
69.691927
75.188019
63.255280
66.323829
84.055014
80.832729
84.022885
85.990729
87.970869
89.414124
89.647735
88.732448
88.506026
88.712083
87.988238
79.102221
74.055866
87.229554
85.783865
79.788108
73.721801
89.056377
87.708173
67.667142
68.782319
75.524874
87.987141
86.658450
69.444039
65.674744
75.275460
79.084656
82.092539
84.821602
87.107729
88.621090
89.677478
89.688632
89.381142
89.368186
89.361973
88.897332
87.934088
86.504888
84.312643
81.703650
78.736086
74.748314
68.600572
71.806370
89.585720
87.107310
78.405356
82.993964
82.993964
86.445676
89.235850
89.243146
88.089477
87.702629
86.639482
84.694229
82.028720
77.927270
82.266461
82.266461
68.555398
72.145789
86.605725
87.998536
79.105422
83.194105
84.827926
86.937727
89.739642
88.223335
87.447301
86.384428
84.704202
82.263684
79.927679
87.736095
86.169063
71.356108
88.462664
88.653413
81.754527
86.010771
87.767088
86.012001
86.934269
88.316147
88.990426
89.277447
89.974310
89.768747
89.938841
89.742929
89.709062
89.789548
89.607555
88.479011
86.877589
84.692636
86.710859
81.537330
85.033481
69.382740
67.775625
88.071877
89.122585
80.121481
82.454978
85.030300
86.882924
88.272757
89.247138
89.803946
89.884656
89.909519
89.851326
89.816161
89.985334
89.421189
88.553925
87.099255
85.393541
82.966199
80.170037
84.136613
85.615246
73.904828
70.690471
84.120685
69.011701
83.346095
86.416377
88.738607
89.106823
70.402905
74.315423
75.903134
72.987031
77.774320
72.543598
75.870668
68.985734
70.365084
87.891484
89.059758
78.161884
83.379323
86.462775
88.766416
89.059931
86.821562
84.085733
78.832234
89.078601
89.721622
69.363836
74.127022
72.349935
80.030660
79.208313
83.012368
85.664346
87.919655
89.771398
88.889696
87.344325
85.298584
83.012214
80.596024
82.852977
67.837489
72.775481
89.103739
89.724092
75.430557
85.336570
76.286564
85.943162
87.904635
88.563135
89.360805
89.253458
87.816867
85.623891
86.841173
85.426520
82.922055
78.839271
76.990676
80.533687
77.392395
77.598337
87.420165
88.027411
82.292702
87.112405
88.883876
89.995499
89.208016
88.541291
87.041546
83.011528
88.723152
88.414870
74.048457
71.437313
67.921449
86.236421
88.680979
85.342614
83.697514
89.763788
86.643663
75.913634
84.678671
75.794221
82.224211
73.699736
72.900896
77.419566
82.198096
85.706418
86.997920
88.750770
89.916455
88.972088
88.422849
88.344758
87.668072
86.333097
79.030582
88.046068
88.046068
68.445569
88.136311
86.725793
83.169849
86.988337
70.756556
72.878768
76.413534
70.285901
76.988953
88.868699
88.203059
82.993776
80.892479
66.184040
68.778306
88.882085
89.396351
86.187782
81.887610
85.316507
84.012148
65.244502
67.204734
88.995997
89.625587
70.854431
73.955619
76.957313
81.839268
86.682686
89.650926
88.708723
86.559660
84.327062
86.282449
78.696980
75.773192
74.965413
71.118894
86.483452
89.105514
64.211170
67.851751
84.014174
85.606165
73.728141
78.118973
82.943853
87.915435
89.601550
88.583548
86.443497
81.905641
77.859438
74.341638
76.962206
72.686487
72.338635
80.206762
75.607525
67.478683
73.553571
85.340511
87.276697
88.377262
89.456794
89.506565
88.412396
87.312470
85.404054
83.965085
80.445053
81.331324
76.822223
79.353601
67.077350
72.533457
77.671504
80.242922
83.736965
86.076408
88.358594
89.684937
89.593618
88.341738
86.125403
83.844572
80.315183
69.839325
71.641261
73.360366
79.255094
83.860553
86.174615
88.014114
89.403340
89.556586
88.117941
86.272065
83.975872
79.368362
71.718794
73.383378
76.518819
81.040833
77.431001
81.529225
83.053134
85.179768
88.730916
87.586920
87.694971
89.252170
89.464772
87.797977
89.463461
88.298576
85.215027
83.068013
81.531899
77.396691
86.843349
87.822136
73.724125
76.337614
84.289775
82.331013
84.348076
86.909131
87.830555
88.588869
84.023140
85.804245
83.349713
77.321992
82.641256
84.237067
85.303306
86.876793
87.028094
88.380275
88.893689
86.830808
77.049083
78.305501
87.256437
88.443110
85.229609
84.248528
89.900886
89.986355
67.909612
71.999908
89.747900
87.631060
89.202763
89.747900
89.741565
70.756556
88.023399
84.434978
82.214904
79.678937
78.786654
89.992604
89.148570
87.290896
85.984290
88.684779
89.480679
89.595161
89.677514
89.506661
89.890108
89.476106
89.334660
89.326588
89.301461
88.949428
79.335146
89.228584
88.138984
68.500924
75.379834
71.855594
68.409132
71.855594
77.628212
79.814830
82.290730
85.394288
87.165974
88.457020
89.248781
73.419296
89.835916
79.641153
89.051328
87.674151
85.683305
82.565366
80.026242
77.721788
72.043302
66.918697
83.692057
81.128538
89.343825
88.717622
76.293968
81.458905
81.181989
86.393139
88.223212
89.405914
86.988337
89.620432
89.987241
75.563451
80.266815
73.525684
76.098369
84.225019
86.089535
88.685599
72.147080
68.658467
79.974664
84.877023
87.474203
89.321375
88.921683
87.262520
84.808115
80.030028
72.209800
87.937641
84.808883
82.145111
82.145111
89.483493
88.529092
89.435049
84.710216
74.297300
67.624807
72.095421
75.369972
79.079574
88.839365
88.243905
83.928529
86.073802
87.204489
88.882986
68.879179
70.251615
88.963973
64.105361
66.305777
87.375357
78.349835
82.779399
81.331555
76.663809
84.409461
86.595621
71.681613
69.734385
88.061254
88.859720
79.616710
81.405692
81.641495
79.769680
86.721983
88.574625
82.738902
84.835152
88.574625
89.143346
71.491418
89.143346
87.061893
64.390011
67.381713
71.931429
77.091516
71.107632
87.264053
88.126944
78.830036
80.977927
88.869876
84.630040
83.400138
72.941562
66.513845
72.165478
84.983720
79.524627
82.161876
84.774921
86.292061
84.973894
88.471233
88.494515
88.969299
78.133098
81.915733
83.058401
80.581048
89.559287
72.591677
88.839901
88.804328
80.403214
82.736169
84.816222
69.598619
82.614663
88.962507
87.732792
85.943740
84.323558
82.329563
80.266117
86.916405
67.554542
72.866620
81.043267
76.511797
69.777789
86.349442
88.022723
77.261312
87.032212
82.232545
69.715966
79.004912
80.614555
82.864824
76.992380
76.728532
71.099179
74.934900
87.817667
88.927423
89.492140
89.854270
89.720592
89.441488
88.937727
87.800703
85.806873
87.942473
89.767313
89.377492
76.974929
76.761643
83.428013
81.710023
86.608189
88.344832
89.191642
89.798011
89.715731
89.154369
88.352247
86.618829
81.724436
77.966833
75.987449
65.751762
74.419616
67.814070
88.867613
89.602326
82.692172
84.385317
85.490480
87.055602
88.935469
89.959011
88.879383
88.716802
88.741499
87.721295
86.316859
84.365048
81.525037
88.417844
87.646042
77.786151
73.211192
79.788108
81.874210
84.342858
66.084926
67.191004
70.147896
70.147896
74.667257
78.820491
82.240172
85.117035
87.272952
88.868052
89.934472
89.215995
89.016504
88.962824
87.986598
86.524707
84.408998
81.758815
78.403222
74.578828
70.180259
67.990148
72.987031
85.032630
87.121099
88.776809
81.171728
84.517168
89.926661
89.007430
72.644574
81.224945
88.173637
86.685269
84.803461
81.305425
84.165531
73.623846
77.942681
67.546834
88.015924
74.264150
80.547562
80.547562
86.423794
87.474304
88.541830
81.786386
80.575007
89.683735
88.645431
88.525798
88.525798
88.645431
86.809093
83.052079
79.357905
79.357905
74.057677
70.951358
77.856452
72.280723
73.894561
78.333429
82.678269
73.048175
81.273843
83.243751
85.663286
87.204907
87.840655
88.709306
71.042187
78.230007
88.823585
89.943151
84.169526
89.045767
88.605885
87.897283
86.181990
83.734184
84.820711
76.064872
72.278674
74.144745
88.194701
86.242205
89.955163
88.109614
80.178793
82.115721
67.628150
70.485547
88.229814
88.866779
69.534504
75.436410
89.923117
71.589074
73.818224
75.664141
84.943942
68.109261
72.285115
74.735060
81.181989
86.627228
71.445006
80.608742
88.318684
89.842429
77.999403
80.816763
73.271698
80.465533
73.472370
72.465485
79.206507
83.460722
85.751984
87.229781
88.519293
89.956140
88.241314
86.297636
83.741274
80.466943
73.442325
73.559088
85.415145
88.957018
84.729640
86.590029
88.180189
89.726047
89.146524
88.639567
88.421146
87.419295
69.993719
75.724313
85.945584
84.500291
83.444796
82.524055
80.987110
82.677633
72.745881
74.625026
82.286601
85.390632
86.610755
87.619725
88.480309
89.665030
89.030539
88.392893
88.047538
87.343794
86.703900
85.914050
84.825201
82.323461
77.297595
70.778000