# vtk DataFile Version 3.0
Dislocation network (FCC crystal) exported from OpenDiS
ASCII
DATASET UNSTRUCTURED_GRID
POINTS 4370 FLOAT
0.00000000e+00 0.00000000e+00 0.00000000e+00
1.95620000e+04 0.00000000e+00 0.00000000e+00
0.00000000e+00 1.95620000e+04 0.00000000e+00
0.00000000e+00 0.00000000e+00 1.95620000e+04
1.95620000e+04 1.95620000e+04 0.00000000e+00
1.95620000e+04 0.00000000e+00 1.95620000e+04
0.00000000e+00 1.95620000e+04 1.95620000e+04
1.95620000e+04 1.95620000e+04 1.95620000e+04
2.20595102e+03 6.38474635e+03 1.28256733e+04
2.26458120e+03 6.33774139e+03 1.28372985e+04
2.20595102e+03 6.38474635e+03 1.28256733e+04
2.28252468e+03 6.44546566e+03 1.28098189e+04
6.83255136e+03 7.19347367e+03 5.66301962e+03
6.93347513e+03 7.14942847e+03 5.60614105e+03
6.83255136e+03 7.19347367e+03 5.66301962e+03
6.71696752e+03 7.24690139e+03 5.72517574e+03
2.45079518e+03 6.21216948e+03 1.28979406e+04
2.36985102e+03 6.26382162e+03 1.28686486e+04
2.45079518e+03 6.21216948e+03 1.28979406e+04
2.57374676e+03 6.14043282e+03 1.29491555e+04
1.76548232e+04 1.01691403e+04 1.55891905e+04
1.76418609e+04 1.01528511e+04 1.55925174e+04
1.76548232e+04 1.01691403e+04 1.55891905e+04
1.77426237e+04 1.02967076e+04 1.55494237e+04
2.69449423e+03 6.07767095e+03 1.30071411e+04
2.57374676e+03 6.14043282e+03 1.29491555e+04
2.69449423e+03 6.07767095e+03 1.30071411e+04
2.80547569e+03 6.13667685e+03 1.29551655e+04
9.80459461e+03 1.80824843e+04 9.78025686e+03
9.87126169e+03 1.81291873e+04 9.80022092e+03
9.80459461e+03 1.80824843e+04 9.78025686e+03
9.72415922e+03 1.80293185e+04 9.75298720e+03
2.93632774e+03 6.21347944e+03 1.29011161e+04
2.80547569e+03 6.13667685e+03 1.29551655e+04
2.93632774e+03 6.21347944e+03 1.29011161e+04
3.01938879e+03 6.26669564e+03 1.28712712e+04
4.64804176e+03 1.34856893e+04 1.04220971e+04
4.69401376e+03 1.34418507e+04 1.05119077e+04
4.64804176e+03 1.34856893e+04 1.04220971e+04
4.57653280e+03 1.35509121e+04 1.02853654e+04
3.18303743e+03 6.38746815e+03 1.28283951e+04
3.12290888e+03 6.33938497e+03 1.28404405e+04
3.18303743e+03 6.38746815e+03 1.28283951e+04
3.10170007e+03 6.45145761e+03 1.28110472e+04
6.95167236e+03 4.21230619e+03 9.47126625e+03
7.04047057e+03 4.24950914e+03 9.52286152e+03
6.95167236e+03 4.21230619e+03 9.47126625e+03
6.90298664e+03 4.19614368e+03 9.43874305e+03
2.95271249e+03 6.55012821e+03 1.27607302e+04
3.10170007e+03 6.45145761e+03 1.28110472e+04
2.95271249e+03 6.55012821e+03 1.27607302e+04
2.81857788e+03 6.62841398e+03 1.27048814e+04
2.81857788e+03 6.62841398e+03 1.27048814e+04
2.69449423e+03 6.69325767e+03 1.26456414e+04
2.69449423e+03 6.69325767e+03 1.26456414e+04
2.56177367e+03 6.62250263e+03 1.27076069e+04
2.56177367e+03 6.62250263e+03 1.27076069e+04
2.42811861e+03 6.54312381e+03 1.27618832e+04
2.42811861e+03 6.54312381e+03 1.27618832e+04
2.28252468e+03 6.44546566e+03 1.28098189e+04
7.79822583e+03 4.21660780e+03 9.46643970e+03
7.86340986e+03 4.19507993e+03 9.42278353e+03
7.79822583e+03 4.21660780e+03 9.46643970e+03
7.70923086e+03 4.25355582e+03 9.51848665e+03
1.68050128e+04 1.71459339e+04 1.28460930e+04
1.67122833e+04 1.72354340e+04 1.28493224e+04
1.68050128e+04 1.71459339e+04 1.28460930e+04
1.66848945e+04 1.70296582e+04 1.28422504e+04
6.55618990e+03 1.59487461e+03 7.52876556e+03
6.51077833e+03 1.50256318e+03 7.39104256e+03
6.55618990e+03 1.59487461e+03 7.52876556e+03
6.59204848e+03 1.69431579e+03 7.66406532e+03
1.66848945e+04 1.70296582e+04 1.28422504e+04
1.65576050e+04 1.69085566e+04 1.28360625e+04
1.65576050e+04 1.69085566e+04 1.28360625e+04
1.64324837e+04 1.67937609e+04 1.28257369e+04
1.46813102e+04 1.03923162e+04 1.17384268e+04
1.46911154e+04 1.03642631e+04 1.17005685e+04
1.46813102e+04 1.03923162e+04 1.17384268e+04
1.46258191e+04 1.04787751e+04 1.18803767e+04
1.62346184e+04 1.66237100e+04 1.27979224e+04
1.63368094e+04 1.67096450e+04 1.28141785e+04
1.62346184e+04 1.66237100e+04 1.27979224e+04
1.61092528e+04 1.65241993e+04 1.27720675e+04
1.61092528e+04 1.65241993e+04 1.27720675e+04
1.59814098e+04 1.64296974e+04 1.27387265e+04
1.59814098e+04 1.64296974e+04 1.27387265e+04
1.58602658e+04 1.63466441e+04 1.27006358e+04
1.58602658e+04 1.63466441e+04 1.27006358e+04
1.57366605e+04 1.62681589e+04 1.26555156e+04
1.57366605e+04 1.62681589e+04 1.26555156e+04
1.56168064e+04 1.61976548e+04 1.26061657e+04
1.56168064e+04 1.61976548e+04 1.26061657e+04
1.55087799e+04 1.61382450e+04 1.25575490e+04
1.55087799e+04 1.61382450e+04 1.25575490e+04
1.54204365e+04 1.60921273e+04 1.25153233e+04
1.54204365e+04 1.60921273e+04 1.25153233e+04
1.53356703e+04 1.61348770e+04 1.25573398e+04
1.53356703e+04 1.61348770e+04 1.25573398e+04
1.52264222e+04 1.61936256e+04 1.26078393e+04
1.52264222e+04 1.61936256e+04 1.26078393e+04
1.51051529e+04 1.62638758e+04 1.26588585e+04
1.51051529e+04 1.62638758e+04 1.26588585e+04
1.49754305e+04 1.63455504e+04 1.27069063e+04
1.49754305e+04 1.63455504e+04 1.27069063e+04
1.48399052e+04 1.64387370e+04 1.27492449e+04
5.48078005e+03 9.93327811e+03 1.25718033e+04
5.59236518e+03 9.86774395e+03 1.26178542e+04
5.48078005e+03 9.93327811e+03 1.25718033e+04
5.35654289e+03 1.00123166e+04 1.25266046e+04
1.47195595e+04 1.65281365e+04 1.27801912e+04
1.48399052e+04 1.64387370e+04 1.27492449e+04
1.47195595e+04 1.65281365e+04 1.27801912e+04
1.45990812e+04 1.66244228e+04 1.28043831e+04
1.45990812e+04 1.66244228e+04 1.28043831e+04
1.45354699e+04 1.66779605e+04 1.28144568e+04
1.46830032e+04 1.03937284e+04 1.27874711e+04
1.46927045e+04 1.03658522e+04 1.28250486e+04
1.46830032e+04 1.03937284e+04 1.27874711e+04
1.46247304e+04 1.04836375e+04 1.26392891e+04
5.35654289e+03 1.00123166e+04 1.25266046e+04
5.26654748e+03 1.00806978e+04 1.25049904e+04
4.97306443e+03 4.81244299e+03 1.21346425e+04
5.04118525e+03 4.67646306e+03 1.22025016e+04
4.97306443e+03 4.81244299e+03 1.21346425e+04
4.93365375e+03 4.88970388e+03 1.20967923e+04
1.61663217e+03 1.06590825e+03 7.26099868e+03
1.58635267e+03 1.03204688e+03 7.32513956e+03
1.61663217e+03 1.06590825e+03 7.26099868e+03
1.64787667e+03 1.10282342e+03 7.19283902e+03
1.40358603e+04 1.71429909e+04 1.28490360e+04
1.41248084e+04 1.72293727e+04 1.28516023e+04
1.40358603e+04 1.71429909e+04 1.28490360e+04
1.41522026e+04 1.70295632e+04 1.28461214e+04
1.41248084e+04 1.72293727e+04 1.28516023e+04
1.41830032e+04 1.72852419e+04 1.28539280e+04
1.42662082e+04 1.73651216e+04 1.28572532e+04
1.41830032e+04 1.72852419e+04 1.28539280e+04
1.42662082e+04 1.73651216e+04 1.28572532e+04
1.43962768e+04 1.74849691e+04 1.28674743e+04
1.43962768e+04 1.74849691e+04 1.28674743e+04
1.45372870e+04 1.76081631e+04 1.28852905e+04
1.45372870e+04 1.76081631e+04 1.28852905e+04
1.46811781e+04 1.77251910e+04 1.29121538e+04
1.46811781e+04 1.77251910e+04 1.29121538e+04
1.48127180e+04 1.78244954e+04 1.29443892e+04
1.48127180e+04 1.78244954e+04 1.29443892e+04
1.49276128e+04 1.79050534e+04 1.29787260e+04
1.49276128e+04 1.79050534e+04 1.29787260e+04
1.50375326e+04 1.79768645e+04 1.30168347e+04
1.50375326e+04 1.79768645e+04 1.30168347e+04
1.51465764e+04 1.80433706e+04 1.30593725e+04
1.51465764e+04 1.80433706e+04 1.30593725e+04
1.52491863e+04 1.81019469e+04 1.31034061e+04
1.52491863e+04 1.81019469e+04 1.31034061e+04
1.53426034e+04 1.81522077e+04 1.31465624e+04
1.53426034e+04 1.81522077e+04 1.31465624e+04
1.54204365e+04 1.81920194e+04 1.31845838e+04
1.54204365e+04 1.81920194e+04 1.31845838e+04
1.54954796e+04 1.81536043e+04 1.31479558e+04
1.54954796e+04 1.81536043e+04 1.31479558e+04
1.55886964e+04 1.81034676e+04 1.31048757e+04
1.55886964e+04 1.81034676e+04 1.31048757e+04
1.56933824e+04 1.80437199e+04 1.30599374e+04
1.56933824e+04 1.80437199e+04 1.30599374e+04
1.58028765e+04 1.79769431e+04 1.30172202e+04
1.58028765e+04 1.79769431e+04 1.30172202e+04
1.59106444e+04 1.79066044e+04 1.29797909e+04
1.59106444e+04 1.79066044e+04 1.29797909e+04
1.60242848e+04 1.78271530e+04 1.29456020e+04
1.60242848e+04 1.78271530e+04 1.29456020e+04
1.61548797e+04 1.77289586e+04 1.29132014e+04
1.61548797e+04 1.77289586e+04 1.29132014e+04
1.62982705e+04 1.76129227e+04 1.28858465e+04
1.62982705e+04 1.76129227e+04 1.28858465e+04
1.64363244e+04 1.74932496e+04 1.28674657e+04
1.64363244e+04 1.74932496e+04 1.28674657e+04
1.65668085e+04 1.73739904e+04 1.28562408e+04
1.65668085e+04 1.73739904e+04 1.28562408e+04
1.66189882e+04 1.73242922e+04 1.28537593e+04
1.67122833e+04 1.72354340e+04 1.28493224e+04
1.66189882e+04 1.73242922e+04 1.28537593e+04
9.50958964e+03 1.58658571e+04 3.39627013e+03
9.50906653e+03 1.58403597e+04 3.42124443e+03
9.50958964e+03 1.58658571e+04 3.39627013e+03
9.51147424e+03 1.57833409e+04 3.31563856e+03
2.13246259e+03 1.14393467e+04 3.40137036e+03
2.21162621e+03 1.14464569e+04 3.31509646e+03
2.13246259e+03 1.14393467e+04 3.40137036e+03
2.03989545e+03 1.14344906e+04 3.49879352e+03
4.45632519e+03 1.36384544e+04 1.11806784e+04
4.46076335e+03 1.36370475e+04 1.11865235e+04
4.45632519e+03 1.36384544e+04 1.11806784e+04
4.36837680e+03 1.36937337e+04 1.10374508e+04
4.36837680e+03 1.36937337e+04 1.10374508e+04
4.33504798e+03 1.37208429e+04 1.09770128e+04
9.49437012e+03 1.54703682e+04 3.77653946e+03
9.50217344e+03 1.55788310e+04 3.67588003e+03
9.49437012e+03 1.54703682e+04 3.77653946e+03
9.47866968e+03 1.53357745e+04 3.89543277e+03
9.47866968e+03 1.53357745e+04 3.89543277e+03
9.45455549e+03 1.51982207e+04 4.00887232e+03
9.45455549e+03 1.51982207e+04 4.00887232e+03
9.42628126e+03 1.50774618e+04 4.10135702e+03
9.42628126e+03 1.50774618e+04 4.10135702e+03
9.40824080e+03 1.50110099e+04 4.14976847e+03
9.38848442e+03 1.49451314e+04 4.19589059e+03
9.40824080e+03 1.50110099e+04 4.14976847e+03
9.38848442e+03 1.49451314e+04 4.19589059e+03
9.34852842e+03 1.48277621e+04 4.27330390e+03
9.34852842e+03 1.48277621e+04 4.27330390e+03
9.29963447e+03 1.47039940e+04 4.34817802e+03
9.29963447e+03 1.47039940e+04 4.34817802e+03
9.24699084e+03 1.45849092e+04 4.41461922e+03
9.24699084e+03 1.45849092e+04 4.41461922e+03
9.19219184e+03 1.44717355e+04 4.47299394e+03
9.19219184e+03 1.44717355e+04 4.47299394e+03
9.23907956e+03 1.43740695e+04 4.42221567e+03
9.23907956e+03 1.43740695e+04 4.42221567e+03
[...]
CELL_DATA 2182
SCALARS SlipSystemID int 1
LOOKUP_TABLE default
0
10
7
1
1
10
10
5
5
10
7
4
4
7
7
6
6
7
10
4
4
10
10
10
7
7
7
1
1
1
4
12
12
4
4
9
9
4
4
4
4
4
4
4
4
1
1
1
1
1
10
10
1
1
1
6
6
10
2
2
3
3
4
1
4
4
4
4
4
4
4
4
4
4
4
4
1
1
1
1
1
1
1
1
1
1
1
1
5
11
3
3
6
6
6
5
5
5
5
5
5
5
5
5
5
11
11
11
11
11
9
9
11
11
11
11
9
9
11
11
4
4
11
5
5
5
5
5
5
5
5
5
5
5
5
11
11
11
11
11
11
11
11
11
11
11
8
2
10
10
2
2
9
9
12
2
2
5
5
2
8
4
4
7
7
1
1
1
1
1
1
2
8
6
6
4
4
2
2
2
2
2
2
2
8
8
8
8
8
8
8
3
3
11
11
9
6
5
5
6
6
6
6
6
6
9
11
11
9
9
9
9
4
4
7
6
4
4
6
6
6
6
6
6
6
9
9
9
9
9
9
9
2
2
3
12
12
3
3
2
2
8
8
3
3
3
3
3
3
12
12
12
12
12
12
10
10
9
9
12
12
5
5
12
12
3
12
3
3
3
3
3
3
3
3
3
12
12
12
12
12
12
12
12
12
10
7
5
5
10
10
10
10
10
10
7
7
7
7
7
10
10
7
10
3
3
10
10
10
10
10
10
7
7
7
7
7
10
10
1
4
12
12
3
11
11
4
4
4
4
4
4
4
4
4
1
1
1
1
1
1
1
2
9
9
4
1
6
6
4
4
4
4
4
4
4
4
4
1
1
1
1
1
1
1
1
1
2
2
5
11
4
8
8
5
5
5
11
5
5
5
5
11
11
7
7
11
5
9
9
5
5
5
5
11
11
11
11
9
9
8
2
7
7
2
2
2
2
2
8
8
8
8
8
7
2
8
12
12
2
2
9
9
2
2
2
2
8
8
8
3
3
8
8
4
4
6
9
8
8
6
6
6
6
9
9
9
9
11
11
9
6
6
6
6
3
3
6
1
12
12
4
5
5
12
3
3
3
3
3
3
3
12
12
12
12
12
2
3
3
3
3
3
5
4
4
4
4
3
12
6
6
8
8
11
11
12
12
2
2
10
7
6
6
10
10
10
10
10
10
7
7
1
1
7
7
7
7
1
1
7
10
8
8
10
10
10
10
10
7
7
7
7
7
2
2
4
1
8
8
4
8
8
4
4
4
4
1
1
1
1
11
11
1
3
1
4
1
1
4
4
4
4
4
1
1
1
1
1
11
11
5
11
5
5
5
5
5
11
11
11
11
11
11
11
5
5
5
9
9
5
5
11
11
6
6
11
11
11
8
8
8
2
10
10
2
2
2
8
8
8
12
12
8
2
12
12
2
2
2
8
8
8
6
9
11
11
5
5
6
6
6
9
5
5
9
5
5
9
5
5
9
6
3
3
6
6
6
6
6
6
6
6
9
9
9
9
9
9
5
5
2
2
10
10
3
12
3
3
3
3
3
3
3
2
2
12
8
12
12
12
12
12
12
12
2
2
2
2
3
3
5
3
3
3
3
3
12
12
4
4
2
2
12
7
7
11
10
7
10
10
10
10
7
7
7
7
7
10
12
10
10
4
4
10
10
7
7
7
4
1
4
10
4
9
9
4
4
4
4
4
1
1
1
1
1
1
1
10
10
4
1
9
9
4
4
10
10
4
4
11
11
1
11
11
1
1
1
10
10
11
11
11
5
11
11
11
11
11
11
5
11
9
5
5
5
11
11
7
5
11
7
7
11
11
6
2
12
12
2
2
2
3
7
6
6
8
8
8
8
11
8
2
8
2
8
8
8
9
6
11
6
6
6
6
9
9
9
9
5
5
3
3
6
9
10
6
6
6
6
6
9
9
9
9
9
8
8
3
12
10
10
3
6
6
3
3
3
3
3
3
3
12
12
12
12
12
12
2
2
12
12
6
6
7
7
3
12
3
3
3
3
3
3
3
3
3
12
12
12
12
12
12
12
12
12
7
1
1
10
10
10
4
4
10
7
4
4
7
7
7
2
2
6
6
12
10
10
10
10
7
7
10
7
8
8
7
7
7
7
7
7
1
11
11
1
1
4
4
4
4
1
1
1
1
1
1
1
1
1
6
6
4
11
11
4
4
7
7
1
1
4
4
1
1
1
1
7
5
11
5
5
5
5
11
11
11
10
10
5
5
5
5
5
5
11
11
11
11
11
2
4
4
3
2
2
2
2
2
8
8
8
10
8
8
8
8
9
9
8
2
2
2
2
2
2
2
2
8
8
8
8
8
8
8
4
9
6
6
6
6
6
6
9
9
9
9
9
9
9
6
1
1
6
5
5
11
11
6
6
9
1
4
4
9
9
9
1
1
12
2
3
3
3
3
12
12
12
12
12
2
12
3
10
10
3
3
10
3
3
12
11
11
12
12
7
7
7
10
2
2
10
10
10
10
7
7
7
7
2
2
7
9
3
3
6
10
7
7
7
11
11
7
7
3
3
1
4
4
4
4
4
1
1
1
1
3
3
1
4
7
4
4
3
3
7
9
9
1
1
5
10
10
5
5
5
5
9
9
5
11
1
1
5
10
11
5
5
10
11
11
8
8
2
2
2
2
2
8
8
8
8
8
8
8
8
8
8
4
4
2
8
4
2
2
2
1
2
2
2
8
8
8
8
8
8
6
4
6
6
6
6
9
9
9
1
10
10
9
6
6
6
6
6
7
9
9
12
12
3
3
3
3
12
12
12
12
12
12
12
1
1
3
12
1
1
3
6
6
1
3
8
8
4
4
12
12
12
6
10
10
10
10
10
10
10
10
10
7
7
7
7
7
7
7
3
3
9
3
3
10
10
10
3
3
7
3
3
7
7
7
7
9
1
1
4
7
4
8
8
10
10
1
4
2
2
4
4
4
4
4
4
4
1
1
1
1
1
1
11
5
5
5
5
5
5
5
11
11
11
11
11
11
7
7
5
5
5
7
7
5
5
5
5
5
5
7
7
5
11
10
10
11
11
10
10
11
12
12
12
12
2
1
1
2
2
2
2
6
6
2
8
8
8
8
8
8
5
8
6
5
5
2
8
12
12
8
8
6
6
9
6
6
6
6
6
6
9
9
9
9
9
9
6
6
6
5
6
6
6
4
8
1
1
9
9
7
7
12
3
3
3
1
3
3
3
12
12
12
12
12
12
12
12
3
2
2
3
3
3
3
3
12
12
12
12
12
12
9
9
7
9
10
10
10
5
5
10
7
7
7
3
3
7
7
7
10
10
10
10
10
10
8
8
7
8
8
7
7
7
7
1
5
5
5
5
4
4
4
1
1
1
10
10
4
10
7
7
4
4
4
11
11
9
9
1
1
5
11
5
9
9
5
5
5
5
5
11
11
11
11
11
4
4
11
5
4
5
5
5
5
5
5
5
11
11
11
11
11
11
11
12
2
2
2
2
8
8
8
8
7
2
8
11
2
2
1
8
8
8
8
8
11
12
12
6
9
5
5
11
6
9
9
3
12
5
3
3
3
3
12
12
3
3
3
3
12
3
3
3
3
3
3
12
12
12
12
12
7
9
9
10
9
7
10
9
10
7
7
7
7
4
4
4
4
4
1
1
1
1
1
4
12
4
4
3
1
1
1
1
5
11
3
3
5
4
4
5
10
11
11
11
10
11
11
5
5
5
5
11
11
7
7
11
11
11
11
5
8
4
4
2
2
2
8
2
11
8
8
4
4
2
8
2
2
2
2
2
8
8
8
8
8
9
6
10
6
6
6
9
9
9
9
9
1
1
9
6
6
6
6
6
6
7
9
10
9
9
9
9
3
12
3
12
12
12
12
10
10
12
3
3
3
12
12
12
12
12
10
10
10
10
10
10
7
11
10
10
9
10
7
1
6
6
4
4
4
4
1
1
1
1
4
2
4
4
4
4
1
1
1
1
5
11
11
5
5
8
11
8
5
2
5
5
5
5
11
11
11
11
2
2
2
2
2
2
8
8
8
4
4
2
8
2
2
2
8
8
2
7
7
9
6
6
6
6
6
9
9
9
9
9
6
11
11
6
11
3
9
12
3
3
5
4
3
12
12
12
12
10
10
3
3
12
12
3
10
7
4
4
10
10
10
10
7
10
7
7
12
12
10
10
10
4
4
7
2
2
7
7
7
4
4
4
4
1
1
6
1
1
1
2
5
7
7
5
5
5
5
5
11
5
11
11
11
11
11
11
4
4
11
2
5
5
5
11
11
11
1
10
2
8
9
2
2
2
2
2
2
2
2
8
8
8
2
2
2
8
8
8
8
8
8
8
8
9
6
9
9
8
8
8
8
6
9
9
3
12
3
3
3
12
12
3
12
3
3
3
3
3
12
12
12
12
12
7
10
10
7
7
7
7
7
7
10
10
10
10
10
10
10
10
7
12
7
7
7
7
7
7
1
8
8
4
4
4
4
4
4
1
1
1
1
1
1
1
1
1
4
4
4
4
1
1
1
1
1
1
1
11
5
5
5
5
11
11
11
11
11
5
11
5
2
6
5
5
11
11
11
11
11
1
1
8
8
2
2
2
2
2
8
8
8
8
8
2
2
8
8
1
1
6
9
3
6
9
6
9
9
12
9
6
6
6
9
9
9
9
3
3
3
3
3
12
12
12
12
6
7
10
10
2
10
10
10
7
7
7
6
7
11
7
10
3
10
10
10
10
10
10
10
7
7
7
7
7
7
7
4
1
1
4
4
4
4
1
1
1
1
1
1
1
4
1
8
10
5
5
5
5
11
11
4
11
3
5
5
5
11
11
11
4
4
4
9
9
7
5
8
1
12
7
10
4
1
2
2
8
1
10
6
1
10
12
11
5
5
6
8
8
8
7
12
12
5
11
8
11
8
8
11
8
7
11
5
8
13
3
2
8
5
11
SCALARS DislocationType int 1
LOOKUP_TABLE default
0
2
2
3
3
3
3
2
3
3
3
3
3
3
3
3
3
2
2
3
3
3
3
3
3
3
3
3
3
2
2
3
2
2
2
2
3
2
2
2
3
3
3
3
3
3
3
3
3
3
3
3
2
2
2
2
3
2
3
3
3
3
2
2
2
2
2
2
2
2
3
3
3
3
3
3
3
3
3
3
3
3
2
2
2
2
2
2
2
2
2
2
2
3
3
2
2
2
2
3
3
3
3
3
3
3
3
3
3
3
3
3
2
2
2
2
2
2
2
2
3
3
2
2
2
2
2
2
2
2
3
3
3
3
3
3
3
3
3
3
2
2
2
2
2
2
2
3
3
3
3
3
3
3
3
3
3
2
2
3
3
3
3
3
3
3
3
3
3
3
3
2
3
3
3
3
3
3
3
3
3
3
3
3
3
3
3
3
3
3
3
2
2
3
3
2
2
3
3
2
2
2
3
3
3
3
2
2
3
3
2
2
3
3
3
2
3
3
2
2
2
3
3
3
3
3
3
3
3
2
2
2
3
3
2
2
3
2
2
2
3
2
2
2
2
3
3
3
3
3
3
3
3
3
2
3
3
3
3
2
2
3
3
3
3
2
2
2
2
2
2
2
3
3
3
3
3
3
3
3
2
2
2
2
2
2
2
3
3
3
3
3
3
3
3
3
3
3
3
3
2
2
2
2
3
3
3
3
3
3
3
3
3
3
3
3
3
3
3
2
2
3
3
2
3
3
2
2
2
2
3
3
3
3
3
3
3
3
3
2
2
2
3
3
3
2
2
3
3
2
2
2
2
2
3
3
3
3
3
3
3
3
2
2
2
2
2
3
3
2
2
2
2
2
3
3
3
3
2
2
3
2
3
3
2
3
2
2
3
3
3
3
3
3
3
3
3
3
3
3
2
2
2
3
3
3
3
3
3
3
3
3
3
3
3
2
3
3
3
3
3
3
3
3
3
3
3
3
3
3
3
3
3
3
2
2
2
2
3
3
3
3
3
3
3
3
3
3
2
2
2
2
3
3
3
3
3
3
3
3
3
2
3
3
2
2
3
3
3
3
3
3
3
3
3
3
3
3
2
3
3
3
3
2
3
3
2
2
3
3
3
3
3
3
3
3
3
3
2
2
2
2
3
3
3
3
3
3
3
3
3
3
3
3
3
3
3
3
3
3
2
2
3
3
3
3
3
3
3
3
3
3
3
3
2
2
2
3
2
2
3
2
3
3
3
3
3
3
3
3
3
3
3
3
2
2
3
3
3
3
3
3
3
3
3
3
3
3
3
3
3
2
2
3
3
3
3
3
3
3
3
3
3
2
3
3
3
3
3
3
3
3
3
3
3
3
3
3
3
3
3
2
2
3
3
3
3
3
3
3
3
3
3
2
3
2
2
3
3
3
3
3
3
2
2
3
3
3
3
3
3
3
3
3
3
3
2
3
3
3
3
2
2
3
3
3
3
3
3
3
3
3
3
3
3
3
3
3
3
2
3
3
3
2
3
2
2
2
2
3
3
3
3
3
2
3
3
2
3
3
3
3
2
2
2
3
3
3
3
2
2
3
3
3
3
2
3
3
3
3
3
3
2
2
3
3
2
2
2
3
3
3
3
3
3
3
3
2
2
3
3
3
2
2
3
3
3
3
3
2
2
3
3
3
3
3
3
3
3
3
3
3
3
3
3
3
3
3
3
3
3
2
3
3
3
3
3
3
3
3
3
3
3
2
3
3
3
3
3
3
3
3
3
3
3
3
3
3
2
3
3
2
3
3
3
3
3
3
3
3
3
3
3
3
3
3
3
3
3
3
3
3
2
3
3
3
3
3
3
3
3
3
3
3
3
3
3
3
3
3
2
3
3
3
3
3
3
3
3
3
3
3
3
3
3
3
3
3
3
3
3
3
3
3
3
3
3
3
2
2
3
3
2
3
3
2
2
2
3
3
3
3
3
3
3
3
2
2
3
3
2
2
3
3
3
3
2
2
2
2
2
2
2
3
3
3
3
3
3
3
3
2
2
2
2
2
2
3
2
3
3
3
3
3
3
3
2
3
3
3
3
3
3
2
3
3
3
3
3
3
3
3
3
3
2
2
3
3
3
3
3
3
2
3
3
3
3
3
3
3
3
2
2
3
3
3
3
3
3
3
3
3
2
3
3
3
3
3
2
2
2
3
3
3
2
2
2
3
2
3
3
3
3
3
3
3
3
3
3
3
3
3
3
3
3
3
3
3
3
3
2
3
2
3
3
3
3
3
3
3
3
3
2
3
3
3
3
2
3
2
2
3
3
3
3
3
3
3
3
3
3
3
3
3
3
2
2
3
3
3
3
3
3
3
3
3
3
3
3
3
3
2
3
3
3
2
3
3
3
3
3
2
3
2
3
3
3
3
3
3
3
3
3
3
3
3
3
3
3
3
3
2
3
3
3
3
3
2
3
3
3
3
3
3
3
3
3
3
2
3
3
3
3
3
3
3
3
3
3
2
2
3
2
2
3
3
3
3
3
3
2
2
3
3
3
3
2
2
3
3
3
3
3
3
3
3
3
3
2
2
3
3
3
2
3
3
3
3
3
3
2
3
3
3
3
3
3
2
3
3
3
3
3
3
3
2
3
3
3
3
3
3
3
3
3
3
3
3
3
2
3
3
3
3
3
3
3
2
3
3
2
2
2
3
3
3
2
3
3
3
3
3
3
3
3
3
3
2
3
3
3
3
3
3
3
2
3
3
2
3
3
3
3
3
3
3
3
3
2
3
3
3
3
3
3
3
3
3
3
3
2
2
3
2
3
3
3
3
3
2
3
3
3
3
3
3
3
3
3
2
3
3
3
3
3
3
3
3
3
3
3
3
3
3
3
3
3
3
2
3
3
3
3
3
3
3
2
3
3
3
2
3
3
2
2
3
3
3
3
3
2
2
3
2
3
3
3
3
3
3
3
3
3
3
3
3
3
3
3
2
2
2
2
3
3
3
3
3
3
3
3
2
2
2
2
2
3
3
2
3
2
2
2
3
3
3
3
3
3
3
3
3
3
3
2
2
2
3
3
2
3
2
2
3
3
3
3
3
3
3
3
3
3
3
3
3
3
2
2
3
3
3
3
3
3
3
3
3
3
3
2
3
3
3
3
3
3
3
3
3
3
3
3
2
3
3
2
3
3
3
3
3
3
2
3
3
3
3
2
3
3
3
2
3
3
3
3
3
3
3
3
2
3
3
3
3
3
3
3
3
3
3
3
3
3
3
3
3
3
3
2
3
3
3
3
2
2
3
3
3
3
3
3
3
2
2
2
2
3
3
3
3
3
3
3
2
2
3
3
3
3
3
3
3
2
3
3
3
3
3
3
3
3
3
3
2
2
2
3
3
3
3
3
3
3
3
3
2
2
2
3
3
3
3
3
3
3
3
3
3
3
2
3
3
2
2
2
2
2
2
3
3
3
3
3
3
3
3
2
2
2
3
3
3
3
3
3
3
3
3
3
2
2
3
3
3
3
3
3
3
3
3
2
3
3
3
3
3
3
2
3
3
3
2
3
3
3
3
3
3
3
3
3
3
3
3
3
3
3
3
3
3
3
3
3
3
3
3
3
2
3
3
3
3
3
3
3
3
3
3
3
3
3
3
3
3
3
3
3
3
3
2
2
3
3
2
3
3
3
3
2
2
3
3
3
3
3
3
3
3
3
3
3
3
2
3
3
3
3
3
3
3
3
3
3
3
3
3
3
3
2
3
3
3
3
3
3
3
2
3
3
3
2
3
3
3
3
3
3
3
3
3
3
2
2
2
3
3
3
3
3
3
3
2
3
3
2
2
2
3
3
3
3
3
3
3
3
3
3
2
3
2
3
3
3
3
3
3
3
3
3
3
3
3
3
3
3
3
3
3
3
3
3
3
3
3
2
3
3
3
3
2
3
3
3
3
3
3
3
3
3
3
2
2
3
3
3
3
3
3
3
3
3
2
3
3
3
3
3
3
2
2
3
3
3
3
3
3
3
3
3
3
3
3
3
3
3
3
3
3
3
2
3
3
3
3
3
3
3
2
2
2
3
3
3
3
3
3
3
3
3
3
2
3
3
3
3
3
3
3
3
3
3
3
3
3
3
3
3
3
3
3
3
3
3
3
2
3
3
3
3
3
3
3
3
3
3
3
3
3
3
3
3
2
2
3
3
3
3
3
3
3
3
3
3
3
3
2
3
3
3
3
2
3
3
2
3
3
3
3
3
3
3
3
3
3
3
2
3
3
2
3
3
3
3
3
3
3
3
3
2
2
3
2
2
2
2
3
3
3
3
3
3
2
2
3
3
3
3
3
3
2
2
2
2
3
3
3
3
2
3
3
3
3
3
3
2
2
3
3
3
3
3
2
2
3
3
3
3
3
3
3
3
3
3
3
3
3
3
3
3
3
3
3
3
3
3
3
3
3
3
3
3
2
3
3
3
3
3
3
2
3
3
3
3
3
3
3
3
3
3
3
3
3
3
3
2
2
3
3
3
3
3
3
3
3
3
3
2
2
3
3
3
3
3
3
3
3
3
3
3
2
2
3
3
3
3
3
3
3
3
3
3
3
3
3
3
3
3
3
3
3
3
3
3
3
3
3
3
3
3
2
3
3
3
3
3
3
3
3
3
3
3
3
3
3
3
3
3
3
3
3
3
3
3
3
3
3
2
2
2
3
3
3
3
3
3
3
3
2
3
2
2
3
2
2
3
3
3
3
3
3
3
3
3
3
2
2
2
2
3
3
3
3
3
3
3
3
3
2
3
3
3
3
3
3
2
3
3
3
3
3
3
2
3
3
3
3
3
3
3
3
3
2
2
3
2
3
3
3
3
3
3
3
2
3
3
3
3
3
2
3
3
2
3
3
3
3
3
3
3
3
3
3
3
2
3
3
3
3
2
3
3
2
2
2
2
2
2
2
2
2
SCALARS CharacterAngle float 1
LOOKUP_TABLE default
0.0
70.791875
71.310713
85.801146
87.503541
80.938336
84.495684
71.144270
77.735135
88.691730
87.905432
76.962110
79.470197
84.267160
80.772780
89.214257
88.479514
70.912709
71.681747
84.654042
79.020061
79.387103
84.483804
88.506428
87.810336
83.811274
78.845882
78.910852
84.405520
61.758156
61.612717
78.876980
74.819996
62.470688
64.263185
74.448849
82.821144
68.512105
71.262591
74.559391
77.905390
81.141986
84.181506
86.698620
88.542943
89.713872
87.503805
84.768737
81.488228
77.777578
84.243597
81.062908
74.335182
70.940598
68.471297
74.398055
82.973030
73.299389
89.936334
89.331903
88.153345
87.249982
61.452248
61.258643
62.022595
62.022595
64.051926
66.661848
70.111028
73.596795
76.924137
79.961475
82.767582
85.322071
87.485897
89.239108
89.212280
87.497417
85.330730
82.769888
80.001091
77.049609
73.781909
70.350086
67.041953
64.451398
62.415823
62.415823
61.028440
61.146208
64.257307
62.534833
73.331414
82.497925
86.599798
63.697935
66.123243
69.447835
72.933973
75.218258
76.989251
79.560013
83.089926
86.172973
88.954964
88.682493
86.299930
83.268883
79.996295
76.941637
81.028610
85.192713
73.463682
69.953807
66.724406
64.160819
63.406319
64.944161
61.548646
61.223222
86.645338
88.497633
61.138141
61.390014
61.398819
62.832834
64.918784
67.768950
71.035244
74.128749
77.178021
80.300702
83.432984
86.335547
88.823231
88.938101
86.596475
83.789480
80.701002
77.592481
74.595811
71.417709
68.135388
65.117876
62.805278
61.235949
63.671813
75.404456
88.245520
87.288917
85.383482
87.218434
83.923271
87.890296
82.253430
89.544303
89.472482
60.928516
60.973599
88.541211
88.408344
87.163607
85.629779
80.094148
83.874064
86.456573
85.339015
79.883403
82.065970
85.624176
87.194766
64.507341
76.302201
79.173060
75.719220
81.742521
78.367012
81.468487
84.822835
87.358689
87.358689
89.500377
89.500377
89.395086
89.138079
88.495620
88.495620
86.717715
86.717715
84.228609
80.901356
64.477368
66.535206
87.491197
89.409511
64.252748
63.753327
84.539968
82.504017
66.780791
69.810570
72.702111
82.967985
86.735982
88.522567
89.702429
70.957065
70.957065
80.056024
76.501923
73.184627
70.331245
83.481754
77.211882
76.859485
64.826700
85.194367
86.468548
68.348852
71.111874
74.347492
78.298734
82.587356
86.727650
88.617608
89.752362
87.811143
83.365203
78.864708
74.738442
71.077956
68.553720
87.499556
87.499556
64.343245
59.762603
85.023044
60.428793
61.468227
70.590083
76.713641
67.526428
64.124227
68.542461
71.629421
75.623466
79.594642
83.298885
86.721336
89.597756
86.982109
82.600128
77.993812
77.993812
73.448048
82.388141
76.030264
89.382822
88.164610
62.365374
60.748075
81.985911
81.985911
88.991050
88.113426
59.617325
62.288751
59.617977
61.394193
64.172385
68.142287
72.467736
76.523011
80.536138
84.431423
87.979801
88.752323
85.276125
81.227952
77.151755
73.146446
68.833564
64.798534
62.005129
59.961847
68.468174
74.577950
89.300569
89.300569
80.725215
84.808991
87.485252
89.333080
89.318425
89.318425
88.605329
87.998281
86.585090
84.125820
80.346616
65.181979
74.262051
71.563264
72.144304
88.048220
88.874546
82.169441
85.652733
87.413759
88.577459
89.757926
89.184896
88.597624
88.130762
87.133378
85.413292
83.266912
88.689798
87.730253
58.523932
61.287752
89.468312
89.545623
66.080065
87.898812
87.898812
62.620029
66.858763
66.858763
71.537086
76.312875
76.312875
80.687140
84.674513
88.016148
89.067666
85.785189
81.675042
77.096359
72.148680
67.353071
63.063160
89.485515
83.289657
87.079745
58.638601
59.088890
88.083897
89.130220
59.219038
60.712321
63.670157
67.718069
72.186707
76.582781
80.767257
84.723502
88.154385
88.877280
85.610591
81.535929
77.245117
72.746429
68.121683
64.016991
60.921744
59.282634
88.098640
88.848403
71.451644
73.096875
59.061903
69.015198
73.538147
84.291399
87.469355
89.645548
88.590504
65.773079
64.083632
75.803216
73.193425
84.441555
80.498636
74.376933
76.899070
68.476313
71.702012
87.072816
88.721900
79.077688
84.265530
87.504109
89.695491
88.533128
86.918534
84.225327
79.782178
85.189444
86.522004
68.654383
72.111886
73.336586
80.970553
82.306919
85.280788
87.192452
88.527765
89.453292
89.687688
88.658027
87.207651
85.277274
82.248904
83.855908
68.622465
76.045852
88.886145
89.939669
82.247018
85.031246
85.604609
77.314860
87.098115
88.651714
88.651714
89.645870
89.675973
88.703930
86.972952
89.043888
88.006260
84.754089
81.377977
58.691194
59.620300
74.620377
72.960992
88.923196
88.938907
80.093798
86.484438
88.725401
89.975998
89.080882
88.252549
86.467738
82.558118
67.230325
69.506323
74.348948
68.904654
78.330996
85.258994
88.097141
87.201303
85.591399
89.806057
84.352692
79.985330
86.486539
57.845201
83.678712
76.133012
74.652259
72.518267
81.777676
87.190764
87.190764
88.336196
88.923152
89.034108
89.415462
89.813951
88.940490
87.564170
81.196749
75.861737
71.556880
86.862629
84.620975
84.959617
87.808344
62.080400
77.193144
79.153944
68.335727
72.440333
89.350720
89.613721
82.205674
77.405646
86.421523
82.356111
75.608888
78.579438
88.183688
84.019895
68.915973
66.283921
68.054813
70.954791
85.729812
87.184127
75.561644
77.185869
80.142494
83.846988
87.408550
89.526560
89.650969
87.802626
88.171745
89.156621
81.914830
79.874012
77.839107
75.005410
87.219098
89.523171
65.497661
72.355365
86.535714
86.535714
78.609061
82.169556
85.400617
88.314959
89.946470
89.381859
87.657992
84.959844
82.107401
79.513500
62.838252
61.595510
71.570274
77.069217
61.357954
62.348395
80.862447
70.734135
76.507521
88.282837
89.200788
89.200788
89.711527
89.891256
89.291668
89.291668
88.340977
82.437334
84.237283
82.150580
66.457422
66.668249
77.030382
86.020156
83.117078
85.483320
88.062331
88.892723
89.435366
89.798981
89.843420
89.454419
88.948698
88.108602
85.527769
82.090534
82.090534
72.898815
71.077279
81.319432
85.060550
87.026382
88.473605
89.443958
89.820136
88.732997
87.243315
85.266218
81.493527
72.993440
77.632411
84.403300
84.403300
86.997669
88.926054
87.957834
88.383766
89.307858
89.841075
88.688686
89.569207
88.709916
87.158244
84.423417
84.423417
88.143653
88.937077
73.237308
74.879758
85.020077
83.002737
82.412012
85.502170
87.225307
89.737719
86.820194
82.920081
87.344775
85.302350
71.564576
76.203079
67.734647
69.963968
83.988387
86.419682
87.086965
88.579199
88.393578
85.289034
74.029790
71.073674
88.040043
88.883655
87.039525
85.721797
88.654043
89.978260
88.868537
88.449169
88.537153
89.453741
87.659984
69.036531
79.186379
83.713262
86.256821
86.256821
74.675967
72.913959
89.889335
89.996214
87.715816
80.334575
84.140967
86.802694
86.802694
89.361773
89.361773
88.967282
88.610180
87.672915
87.672915
85.797340
85.797340
83.456006
70.333066
75.353941
89.185350
89.185350
68.278121
75.584511
68.111511
66.313246
71.401309
73.234811
75.606121
78.644073
81.701597
85.189815
88.842009
68.843857
77.491360
88.245341
62.348395
84.952383
81.686827
78.679681
75.698611
73.385507
71.562270
68.233194
83.623139
83.623139
89.760549
89.760549
70.206207
74.904339
83.736831
81.617139
84.850575
88.558377
71.236243
81.900475
89.355601
87.763317
88.597370
87.660606
80.628529
73.373603
69.969553
86.611296
87.881928
72.676646
73.856020
68.832750
82.159539
86.337707
88.313192
89.645876
89.179589
88.068123
86.205849
82.167570
73.896076
68.921279
89.259962
83.797013
86.285365
64.916444
72.783983
89.532618
89.532618
89.306674
86.149662
83.684863
66.353777
71.208982
76.624781
77.109085
85.219209
89.199448
89.156274
88.163651
89.176360
89.176360
89.667097
89.874033
89.610827
89.419505
89.156621
81.439267
84.328179
86.043288
82.016453
85.499387
87.614801
75.693720
74.476864
88.787900
89.542532
82.172719
84.113418
87.856752
86.262523
88.013677
89.554776
84.420632
85.672883
89.451593
70.226950
75.905288
87.922366
84.346928
81.949944
76.382894
83.449560
75.211761
88.485709
88.485709
88.959198
88.625527
85.706820
85.706820
75.637666
69.358716
79.538085
76.324395
70.680988
80.999918
83.646321
87.203623
88.799651
87.218743
85.982476
89.306674
89.666011
89.437814
76.994728
84.473546
87.658322
85.882633
89.272948
77.093674
89.453639
89.462750
84.144913
87.116526
88.549632
62.287730
84.727153
89.280319
88.193869
88.924989
88.222204
86.805422
83.966197
87.025531
77.023495
88.929394
88.405701
82.393318
88.405701
82.951580
82.951580
77.528131
75.177698
74.305420
89.169630
89.602326
89.745538
89.832552
89.950690
89.870611
89.726758
89.172393
86.686741
88.700007
89.156567
88.994421
77.432964
75.113226
86.207034
83.655419
89.090961
89.946352
89.940922
89.969422
89.985765
89.959845
89.961157
89.156906
83.775585
85.346424
81.770121
60.916168
60.747773
87.640223
89.145548
61.078249
89.529266
89.591570
69.819082
73.817759
73.817759
77.789862
81.495746
84.785962
87.381409
89.873276
86.912979
83.104307
78.986280
74.492242
69.801207
81.146359
76.679374
65.579027
62.273179
75.619132
84.499612
83.932236
86.320484
60.503099
60.652362
60.636020
62.578495
65.642418
69.585027
73.929322
77.962055
81.663503
85.150622
87.932840
89.497931
86.408469
82.787567
78.954614
74.816887
70.439929
66.277672
63.169899
61.004270
70.058127
75.066020
71.545553
86.296971
88.022783
89.982333
82.277753
84.867359
89.982333
88.160297
70.556682
76.455769
88.160297
86.982414
85.598642
83.832759
86.178523
72.392801
75.858979
89.457498
80.753938
87.492358
87.492358
89.909968
87.885384
86.279841
89.909968
88.225283
64.280701
74.054410
86.714337
83.061243
80.365929
75.099873
76.406062
83.455316
70.691278
80.385108
85.030052
76.984397
83.065374
78.347524
81.346099
84.729268
84.729268
65.355844
73.145406
89.241728
89.018752
89.018752
85.931219
85.931219
82.249665
78.937105
85.623457
77.233655
70.686337
89.119598
87.706489
89.526940
89.418292
76.132075
65.377109
62.081335
63.377652
86.493872
87.901657
89.815783
64.046753
65.787826
67.039969
84.954765
66.705384
75.315092
77.093363
88.205100
79.037335
89.335878
89.700788
83.527933
76.158621
82.994225
75.981019
75.320366
82.942141
86.572745
88.230693
89.171982
89.767512
89.832898
89.179189
88.233116
86.491993
82.830960
71.874384
79.146841
72.672315
88.204215
83.225546
85.518599
87.174961
88.859601
89.398168
88.441368
87.495720
86.306027
74.817162
84.915669
83.285571
81.911444
80.636244
70.892100
80.485593
71.578349
72.208088
78.648158
82.585951
82.585951
86.213377
86.213377
88.902293
89.232224
88.401532
87.305413
85.142524
85.142524
81.876094
81.876094
78.260586
74.923699
72.612579
78.311280
86.680727
89.000023
89.859335
89.991883
89.818440
89.429442
89.479063
89.410341
88.942656
87.828424
84.813595
77.039483
77.072887
73.809019
75.902726
84.648016
82.187660
73.758041
83.667719
78.498847
89.597968
89.591310
89.457929
69.062461
76.475567
73.442755
86.321181