# vtk DataFile Version 3.0
Dislocation network (FCC crystal) exported from OpenDiS
ASCII
DATASET UNSTRUCTURED_GRID
POINTS 3824 FLOAT
0.00000000e+00 0.00000000e+00 0.00000000e+00
1.95620000e+04 0.00000000e+00 0.00000000e+00
0.00000000e+00 1.95620000e+04 0.00000000e+00
0.00000000e+00 0.00000000e+00 1.95620000e+04
1.95620000e+04 1.95620000e+04 0.00000000e+00
1.95620000e+04 0.00000000e+00 1.95620000e+04
0.00000000e+00 1.95620000e+04 1.95620000e+04
1.95620000e+04 1.95620000e+04 1.95620000e+04
2.20595102e+03 6.15844369e+03 1.25993706e+04
2.32559072e+03 6.11261785e+03 1.26731845e+04
2.20595102e+03 6.15844369e+03 1.25993706e+04
2.32563661e+03 6.20437559e+03 1.25256169e+04
2.32559072e+03 6.11261785e+03 1.26731845e+04
2.44993881e+03 6.05456847e+03 1.27394832e+04
2.44993881e+03 6.05456847e+03 1.27394832e+04
2.57204730e+03 5.99541022e+03 1.28024334e+04
2.57204730e+03 5.99541022e+03 1.28024334e+04
2.69449423e+03 5.93585408e+03 1.28653242e+04
2.69449423e+03 5.93585408e+03 1.28653242e+04
2.81655376e+03 5.99776003e+03 1.28051706e+04
2.81655376e+03 5.99776003e+03 1.28051706e+04
2.93891694e+03 6.05817242e+03 1.27432199e+04
2.93891694e+03 6.05817242e+03 1.27432199e+04
3.06395798e+03 6.11690774e+03 1.26769141e+04
3.06395798e+03 6.11690774e+03 1.26769141e+04
3.18303743e+03 6.16204383e+03 1.26029708e+04
3.18303743e+03 6.16204383e+03 1.26029708e+04
3.06386112e+03 6.20701487e+03 1.25287655e+04
3.06386112e+03 6.20701487e+03 1.25287655e+04
2.93897371e+03 6.26532739e+03 1.24621906e+04
2.93897371e+03 6.26532739e+03 1.24621906e+04
2.81673112e+03 6.32525083e+03 1.23998715e+04
2.81673112e+03 6.32525083e+03 1.23998715e+04
2.69449423e+03 6.38551571e+03 1.23378994e+04
2.69449423e+03 6.38551571e+03 1.23378994e+04
2.57236901e+03 6.32375454e+03 1.23982635e+04
2.57236901e+03 6.32375454e+03 1.23982635e+04
2.45011014e+03 6.26310521e+03 1.24598730e+04
2.45011014e+03 6.26310521e+03 1.24598730e+04
2.32563661e+03 6.20437559e+03 1.25256169e+04
1.68050128e+04 1.68242987e+04 1.31677282e+04
1.67012335e+04 1.67904518e+04 1.30977958e+04
1.68050128e+04 1.68242987e+04 1.31677282e+04
1.67008763e+04 1.68583789e+04 1.32377845e+04
1.67012335e+04 1.67904518e+04 1.30977958e+04
1.65751908e+04 1.67354320e+04 1.30267729e+04
1.65751908e+04 1.67354320e+04 1.30267729e+04
1.64589538e+04 1.66802408e+04 1.29657271e+04
1.64589538e+04 1.66802408e+04 1.29657271e+04
1.63432881e+04 1.66234457e+04 1.29068565e+04
1.63432881e+04 1.66234457e+04 1.29068565e+04
1.62277915e+04 1.65655719e+04 1.28492337e+04
1.62277915e+04 1.65655719e+04 1.28492337e+04
1.61125659e+04 1.65075662e+04 1.27920137e+04
1.61125659e+04 1.65075662e+04 1.27920137e+04
1.59972413e+04 1.64493741e+04 1.27348812e+04
1.59972413e+04 1.64493741e+04 1.27348812e+04
1.58818229e+04 1.63909771e+04 1.26778599e+04
1.58818229e+04 1.63909771e+04 1.26778599e+04
1.57663849e+04 1.63324717e+04 1.26209272e+04
1.57663849e+04 1.63324717e+04 1.26209272e+04
1.56510499e+04 1.62739589e+04 1.25641051e+04
1.56510499e+04 1.62739589e+04 1.25641051e+04
1.55356673e+04 1.62152391e+04 1.25074423e+04
1.55356673e+04 1.62152391e+04 1.25074423e+04
1.54204365e+04 1.61564788e+04 1.24509718e+04
1.54204365e+04 1.61564788e+04 1.24509718e+04
1.53047323e+04 1.62132563e+04 1.25098985e+04
1.53047323e+04 1.62132563e+04 1.25098985e+04
1.51893231e+04 1.62701027e+04 1.25684613e+04
1.51893231e+04 1.62701027e+04 1.25684613e+04
1.50741029e+04 1.63269397e+04 1.26268445e+04
1.50741029e+04 1.63269397e+04 1.26268445e+04
1.49588173e+04 1.63839745e+04 1.26850954e+04
1.49588173e+04 1.63839745e+04 1.26850954e+04
1.48434802e+04 1.64410604e+04 1.27433466e+04
1.48434802e+04 1.64410604e+04 1.27433466e+04
1.47279762e+04 1.64981823e+04 1.28017286e+04
1.47279762e+04 1.64981823e+04 1.28017286e+04
1.46126928e+04 1.65553537e+04 1.28598407e+04
1.46126928e+04 1.65553537e+04 1.28598407e+04
1.44973745e+04 1.66126089e+04 1.29179037e+04
1.44973745e+04 1.66126089e+04 1.29179037e+04
1.43820360e+04 1.66696326e+04 1.29762185e+04
1.43820360e+04 1.66696326e+04 1.29762185e+04
1.42664132e+04 1.67259862e+04 1.30354878e+04
1.42664132e+04 1.67259862e+04 1.30354878e+04
1.41458756e+04 1.67817765e+04 1.31002350e+04
1.41458756e+04 1.67817765e+04 1.31002350e+04
1.40358603e+04 1.68224123e+04 1.31696146e+04
1.40358603e+04 1.68224123e+04 1.31696146e+04
1.41459874e+04 1.68631462e+04 1.32390078e+04
1.41459874e+04 1.68631462e+04 1.32390078e+04
1.42664764e+04 1.69189896e+04 1.33036534e+04
1.42664764e+04 1.69189896e+04 1.33036534e+04
1.43819607e+04 1.69753109e+04 1.33628164e+04
1.43819607e+04 1.69753109e+04 1.33628164e+04
1.44974066e+04 1.70326418e+04 1.34209313e+04
1.44974066e+04 1.70326418e+04 1.34209313e+04
1.46129390e+04 1.70903020e+04 1.34788036e+04
1.46129390e+04 1.70903020e+04 1.34788036e+04
1.47282019e+04 1.71478427e+04 1.35365259e+04
1.47282019e+04 1.71478427e+04 1.35365259e+04
1.48434200e+04 1.72053251e+04 1.35942616e+04
1.48434200e+04 1.72053251e+04 1.35942616e+04
1.49588817e+04 1.72628064e+04 1.36522419e+04
1.49588817e+04 1.72628064e+04 1.36522419e+04
1.50742579e+04 1.73201212e+04 1.37103033e+04
1.50742579e+04 1.73201212e+04 1.37103033e+04
1.51894716e+04 1.73773004e+04 1.37683379e+04
1.51894716e+04 1.73773004e+04 1.37683379e+04
1.53046983e+04 1.74344826e+04 1.38263824e+04
1.53046983e+04 1.74344826e+04 1.38263824e+04
1.54204365e+04 1.74917932e+04 1.38848100e+04
1.54204365e+04 1.74917932e+04 1.38848100e+04
1.55359904e+04 1.74332620e+04 1.38277874e+04
1.55359904e+04 1.74332620e+04 1.38277874e+04
1.56510630e+04 1.73750702e+04 1.37709066e+04
1.56510630e+04 1.73750702e+04 1.37709066e+04
1.57664943e+04 1.73166721e+04 1.37138734e+04
1.57664943e+04 1.73166721e+04 1.37138734e+04
1.58817453e+04 1.72584886e+04 1.36568058e+04
1.58817453e+04 1.72584886e+04 1.36568058e+04
1.59971706e+04 1.72001835e+04 1.35996856e+04
1.59971706e+04 1.72001835e+04 1.35996856e+04
1.61125321e+04 1.71419174e+04 1.35425902e+04
1.61125321e+04 1.71419174e+04 1.35425902e+04
1.62277454e+04 1.70838444e+04 1.34854500e+04
1.62277454e+04 1.70838444e+04 1.34854500e+04
1.63432460e+04 1.70257945e+04 1.34279992e+04
1.63432460e+04 1.70257945e+04 1.34279992e+04
1.64588889e+04 1.69687835e+04 1.33693673e+04
1.64588889e+04 1.69687835e+04 1.33693673e+04
1.65749826e+04 1.69135340e+04 1.33085231e+04
1.65749826e+04 1.69135340e+04 1.33085231e+04
1.67008763e+04 1.68583789e+04 1.32377845e+04
9.78683947e+03 1.58658571e+04 3.67351996e+03
9.72354854e+03 1.57504383e+04 3.72564785e+03
9.78683947e+03 1.58658571e+04 3.67351996e+03
9.85003443e+03 1.57504970e+04 3.62135488e+03
9.72354854e+03 1.57504383e+04 3.72564785e+03
9.66406225e+03 1.56333127e+04 3.78328707e+03
9.66406225e+03 1.56333127e+04 3.78328707e+03
9.60582574e+03 1.55170983e+04 3.84126497e+03
9.60582574e+03 1.55170983e+04 3.84126497e+03
9.54774015e+03 1.54010266e+04 3.89925110e+03
9.54774015e+03 1.54010266e+04 3.89925110e+03
9.48977080e+03 1.52849826e+04 3.95732577e+03
9.48977080e+03 1.52849826e+04 3.95732577e+03
9.43169137e+03 1.51689220e+04 4.01530696e+03
9.43169137e+03 1.51689220e+04 4.01530696e+03
9.37345457e+03 1.50525364e+04 4.07345575e+03
9.37345457e+03 1.50525364e+04 4.07345575e+03
9.31528131e+03 1.49365004e+04 4.13131845e+03
9.31528131e+03 1.49365004e+04 4.13131845e+03
9.25708038e+03 1.48203326e+04 4.18928536e+03
9.25708038e+03 1.48203326e+04 4.18928536e+03
9.19876357e+03 1.47041813e+04 4.24711979e+03
9.19876357e+03 1.47041813e+04 4.24711979e+03
9.14049677e+03 1.45882245e+04 4.30480984e+03
9.14049677e+03 1.45882245e+04 4.30480984e+03
9.08189000e+03 1.44717355e+04 4.36269210e+03
9.08189000e+03 1.44717355e+04 4.36269210e+03
9.13969569e+03 1.43552986e+04 4.30406095e+03
9.13969569e+03 1.43552986e+04 4.30406095e+03
9.19725656e+03 1.42393906e+04 4.24571379e+03
9.19725656e+03 1.42393906e+04 4.24571379e+03
9.25500143e+03 1.41231740e+04 4.18724209e+03
9.25500143e+03 1.41231740e+04 4.18724209e+03
9.31286533e+03 1.40069615e+04 4.12889349e+03
9.31286533e+03 1.40069615e+04 4.12889349e+03
9.37066342e+03 1.38908145e+04 4.07054456e+03
9.37066342e+03 1.38908145e+04 4.07054456e+03
9.42857774e+03 1.37746659e+04 4.01231024e+03
9.42857774e+03 1.37746659e+04 4.01231024e+03
9.48642161e+03 1.36585576e+04 3.95404581e+03
9.48642161e+03 1.36585576e+04 3.95404581e+03
9.54435430e+03 1.35424707e+04 3.89589161e+03
9.54435430e+03 1.35424707e+04 3.89589161e+03
9.60243585e+03 1.34262175e+04 3.83771995e+03
9.60243585e+03 1.34262175e+04 3.83771995e+03
9.66049467e+03 1.33101255e+04 3.77968680e+03
9.66049467e+03 1.33101255e+04 3.77968680e+03
9.71903135e+03 1.31937012e+04 3.72179920e+03
9.71903135e+03 1.31937012e+04 3.72179920e+03
9.77990934e+03 1.30776139e+04 3.66658983e+03
9.77990934e+03 1.30776139e+04 3.66658983e+03
9.84084624e+03 1.31936857e+04 3.61145491e+03
9.84084624e+03 1.31936857e+04 3.61145491e+03
9.89962119e+03 1.33101191e+04 3.55379649e+03
9.89962119e+03 1.33101191e+04 3.55379649e+03
9.95793518e+03 1.34262594e+04 3.49597009e+03
9.95793518e+03 1.34262594e+04 3.49597009e+03
1.00162720e+04 1.35422950e+04 3.43827142e+03
1.00162720e+04 1.35422950e+04 3.43827142e+03
1.00746178e+04 1.36583827e+04 3.38052943e+03
1.00746178e+04 1.36583827e+04 3.38052943e+03
1.01331296e+04 1.37747066e+04 3.32271725e+03
1.01331296e+04 1.37747066e+04 3.32271725e+03
1.01916492e+04 1.38908278e+04 3.26511575e+03
1.01916492e+04 1.38908278e+04 3.26511575e+03
1.02502254e+04 1.40070232e+04 3.20749652e+03
1.02502254e+04 1.40070232e+04 3.20749652e+03
1.03089035e+04 1.41232318e+04 3.14996599e+03
1.03089035e+04 1.41232318e+04 3.14996599e+03
1.03675120e+04 1.42392005e+04 3.09260583e+03
1.03675120e+04 1.42392005e+04 3.09260583e+03
1.04263357e+04 1.43553675e+04 3.03526259e+03
1.04263357e+04 1.43553675e+04 3.03526259e+03
1.04853111e+04 1.44717355e+04 2.97787002e+03
1.04853111e+04 1.44717355e+04 2.97787002e+03
1.04279557e+04 1.45880136e+04 3.03679271e+03
1.04279557e+04 1.45880136e+04 3.03679271e+03
1.03705399e+04 1.47041798e+04 3.09554313e+03
1.03705399e+04 1.47041798e+04 3.09554313e+03
1.03131513e+04 1.48202568e+04 3.15423156e+03
1.03131513e+04 1.48202568e+04 3.15423156e+03
1.02556324e+04 1.49364431e+04 3.21289888e+03
1.02556324e+04 1.49364431e+04 3.21289888e+03
[...]
CELL_DATA 1909
SCALARS SlipSystemID int 1
LOOKUP_TABLE default
0
10
7
10
10
10
7
7
7
7
10
10
10
10
7
7
7
4
1
4
4
4
4
4
4
4
4
4
4
4
1
1
1
1
1
1
1
1
1
1
1
1
4
4
4
4
4
4
4
4
4
4
4
4
1
1
1
1
1
1
1
1
1
1
1
5
11
5
5
5
5
5
5
5
5
5
5
5
11
11
11
11
11
11
11
11
11
11
11
11
5
5
5
5
5
5
5
5
5
5
5
5
11
11
11
11
11
11
11
11
11
11
11
2
8
2
2
2
2
2
2
8
8
8
8
8
8
8
2
2
2
2
2
2
2
8
8
8
8
8
8
6
9
6
6
6
6
6
6
6
9
9
9
9
9
9
9
9
6
6
6
6
6
6
6
6
9
9
9
9
9
9
9
3
12
3
3
3
3
3
3
3
3
3
12
12
12
12
12
12
12
12
12
12
3
3
3
3
3
3
3
3
3
3
12
12
12
12
12
12
12
12
12
10
7
10
10
10
10
10
7
7
7
7
7
7
10
10
10
10
10
10
7
7
7
7
7
4
1
4
4
4
4
4
4
4
4
4
1
1
1
1
1
1
1
1
1
1
4
4
4
4
4
4
4
4
4
4
1
1
1
1
1
1
1
1
1
5
11
5
5
5
5
11
11
11
11
11
5
5
5
5
5
11
11
11
11
2
8
2
2
2
2
2
8
8
8
8
8
8
2
2
2
2
2
2
8
8
8
8
8
6
9
6
6
6
6
9
9
9
9
9
6
6
6
6
6
9
9
9
9
3
12
3
3
3
3
3
12
12
12
12
12
12
3
3
3
3
3
3
12
12
12
12
12
10
7
10
10
10
10
10
7
7
7
7
7
7
10
10
10
10
10
10
7
7
7
7
7
4
1
4
4
4
4
4
1
1
1
1
1
1
4
4
4
4
4
4
1
1
1
1
1
5
11
5
5
5
5
5
11
11
11
11
11
11
5
5
5
5
5
5
11
11
11
11
11
2
8
2
2
2
8
8
8
8
2
2
2
2
8
8
8
6
9
6
6
6
6
6
6
9
9
9
9
9
9
9
6
6
6
6
6
6
6
9
9
9
9
9
9
3
12
3
3
3
3
3
3
3
12
12
12
12
12
12
12
12
3
3
3
3
3
3
3
3
12
12
12
12
12
12
12
10
7
10
10
10
10
7
7
7
7
7
10
10
10
10
10
7
7
7
7
4
1
4
4
4
4
4
4
1
1
1
1
1
1
1
4
4
4
4
4
4
4
1
1
1
1
1
1
5
11
5
5
5
5
5
11
11
11
11
11
11
5
5
5
5
5
5
11
11
11
11
11
2
8
2
2
2
2
2
8
8
8
8
8
8
2
2
2
2
2
2
8
8
8
8
8
6
9
6
6
6
6
6
9
9
9
9
9
9
6
6
6
6
6
6
9
9
9
9
9
3
12
3
3
3
3
3
3
3
3
3
12
12
12
12
12
12
12
12
12
12
3
3
3
3
3
3
3
3
3
3
12
12
12
12
12
12
12
12
12
10
7
10
10
10
10
10
10
7
7
7
7
7
7
7
10
10
10
10
10
10
10
7
7
7
7
7
7
4
1
4
4
4
4
4
4
1
1
1
1
1
1
1
4
4
4
4
4
4
4
1
1
1
1
1
1
5
11
5
5
5
5
5
11
11
11
11
11
11
5
5
5
5
5
5
11
11
11
11
11
2
8
2
2
2
2
2
2
8
8
8
8
8
8
8
2
2
2
2
2
2
2
8
8
8
8
8
8
6
9
6
6
6
6
6
9
9
9
9
9
9
6
6
6
6
6
6
9
9
9
9
9
3
12
3
3
3
3
12
12
12
12
12
3
3
3
3
3
12
12
12
12
10
7
10
10
10
10
7
7
7
7
7
10
10
10
10
10
7
7
7
7
4
1
4
4
4
4
1
1
1
1
1
4
4
4
4
4
1
1
1
1
5
11
5
5
5
5
11
11
11
11
11
5
5
5
5
5
11
11
11
11
2
8
2
2
2
2
2
2
2
8
8
8
8
8
8
8
8
2
2
2
2
2
2
2
2
8
8
8
8
8
8
8
6
9
6
6
6
6
9
9
9
9
9
6
6
6
6
6
9
9
9
9
3
12
3
3
3
3
3
12
12
12
12
12
12
3
3
3
3
3
3
12
12
12
12
12
10
7
10
10
10
10
10
10
7
7
7
7
7
7
7
10
10
10
10
10
10
10
7
7
7
7
7
7
4
1
4
4
4
4
4
1
1
1
1
1
1
4
4
4
4
4
4
1
1
1
1
1
5
11
5
5
5
5
5
5
5
11
11
11
11
11
11
11
11
5
5
5
5
5
5
5
5
11
11
11
11
11
11
11
2
8
2
2
2
2
2
8
8
8
8
8
8
2
2
2
2
2
2
8
8
8
8
8
6
9
6
6
6
6
6
9
9
9
9
9
9
6
6
6
6
6
6
9
9
9
9
9
3
12
3
3
3
3
3
12
12
12
12
12
12
3
3
3
3
3
3
12
12
12
12
12
10
7
10
10
10
10
10
10
7
7
7
7
7
7
7
10
10
10
10
10
10
10
7
7
7
7
7
7
4
1
4
4
4
4
4
1
1
1
1
1
1
4
4
4
4
4
4
1
1
1
1
1
5
11
5
5
5
5
5
5
5
11
11
11
11
11
11
11
11
5
5
5
5
5
5
5
5
11
11
11
11
11
11
11
2
8
2
2
2
2
8
8
8
8
8
2
2
2
2
2
8
8
8
8
6
9
6
6
6
6
9
9
9
9
9
6
6
6
6
6
9
9
9
9
3
12
3
3
3
3
3
12
12
12
12
12
12
3
3
3
3
3
3
12
12
12
12
12
10
7
10
10
10
10
7
7
7
7
7
10
10
10
10
10
7
7
7
7
4
1
4
4
4
4
1
1
1
1
1
4
4
4
4
4
1
1
1
1
5
11
5
5
5
5
5
11
11
11
11
11
11
5
5
5
5
5
5
11
11
11
11
11
2
8
2
2
2
2
2
8
8
8
8
8
8
2
2
2
2
2
2
8
8
8
8
8
6
9
6
6
6
6
6
6
9
9
9
9
9
9
9
6
6
6
6
6
6
6
9
9
9
9
9
9
3
12
3
3
3
3
3
12
12
12
12
12
12
3
3
3
3
3
3
12
12
12
12
12
10
7
10
10
10
10
7
7
7
7
7
10
10
10
10
10
7
7
7
7
4
1
4
4
4
4
4
1
1
1
1
1
1
4
4
4
4
4
4
1
1
1
1
1
5
11
5
5
5
5
11
11
11
11
11
5
5
5
5
5
11
11
11
11
2
8
2
2
2
2
8
8
8
8
8
2
2
2
2
2
8
8
8
8
6
9
6
6
6
6
9
9
9
9
9
6
6
6
6
6
9
9
9
9
3
12
3
3
3
3
3
12
12
12
12
12
12
3
3
3
3
3
3
12
12
12
12
12
10
7
10
10
10
10
10
10
7
7
7
7
7
7
7
10
10
10
10
10
10
10
7
7
7
7
7
7
4
1
4
4
4
1
1
1
1
4
4
4
4
1
1
1
5
11
5
5
5
5
5
5
11
11
11
11
11
11
11
5
5
5
5
5
5
5
11
11
11
11
11
11
2
8
2
2
2
2
2
2
2
2
8
8
8
8
8
8
8
8
8
2
2
2
2
2
2
2
2
2
8
8
8
8
8
8
8
8
6
9
6
6
6
6
9
9
9
9
9
6
6
6
6
6
9
9
9
9
3
12
3
3
3
3
3
12
12
12
12
12
12
3
3
3
3
3
3
12
12
12
12
12
10
7
10
10
10
10
10
10
10
7
7
7
7
7
7
7
7
10
10
10
10
10
10
10
10
7
7
7
7
7
7
7
4
1
4
4
4
4
4
4
4
4
1
1
1
1
1
1
1
1
1
4
4
4
4
4
4
4
4
4
1
1
1
1
1
1
1
1
5
11
5
5
5
5
5
11
11
11
11
11
11
5
5
5
5
5
5
11
11
11
11
11
2
8
2
2
2
2
8
8
8
8
8
2
2
2
2
2
8
8
8
8
6
9
6
6
6
6
9
9
9
9
9
6
6
6
6
6
9
9
9
9
3
12
3
3
3
3
12
12
12
12
12
3
3
3
3
3
12
12
12
12
10
7
10
10
10
10
10
10
10
7
7
7
7
7
7
7
7
10
10
10
10
10
10
10
10
7
7
7
7
7
7
7
4
1
4
4
4
4
1
1
1
1
1
4
4
4
4
4
1
1
1
1
5
11
5
5
5
5
11
11
11
11
11
5
5
5
5
5
11
11
11
11
SCALARS DislocationType int 1
LOOKUP_TABLE default
0
3
3
3
3
3
3
3
3
3
3
3
3
3
3
3
3
3
3
3
3
3
3
3
3
3
3
3
3
3
3
3
3
3
3
3
3
3
3
3
3
3
3
3
3
3
3
3
3
3
3
3
3
3
3
3
3
3
3
3
3
3
3
3
3
3
3
3
3
3
3
3
3
3
3
3
3
3
3
3
3
3
3
3
3
3
3
3
3
3
3
3
3
3
3
3
3
3
3
3
3
3
3
3
3
3
3
3
3
3
3
3
3
3
3
3
3
3
3
3
3
3
3
3
3
3
3
3
3
3
3
3
3
3
3
3
3
3
3
3
3
3
3
3
3
3
3
3
3
3
3
3
3
3
3
3
3
3
3
3
3
3
3
3
3
3
3
3
3
3
3
3
3
3
3
3
3
3
3
3
3
3
3
3
3
3
3
3
3
3
3
3
3
3
3
3
3
3
3
3
3
3
3
3
3
3
3
3
3
3
3
3
3
3
3
3
3
3
3
3
3
3
3
3
3
3
3
3
3
3
3
3
3
3
3
3
3
3
3
3
3
3
3
3
3
3
3
3
3
3
3
3
3
3
3
3
3
3
3
3
3
3
3
3
3
3
3
3
3
3
3
3
3
3
3
3
3
3
3
3
3
3
3
3
3
3
3
2
3
3
3
3
3
3
3
3
3
3
3
3
3
3
3
3
3
3
3
3
3
3
3
3
3
3
3
3
3
3
3
3
3
3
3
3
3
3
3
3
3
3
3
3
3
3
3
3
3
3
3
3
3
3
3
3
3
3
3
3
3
3
3
3
3
3
3
3
3
3
3
3
3
3
3
3
3
3
3
3
3
3
3
3
3
3
3
3
3
3
3
3
3
3
3
3
3
3
3
3
3
3
3
3
3
3
3
3
3
3
3
3
3
3
3
3
3
3
3
3
3
3
3
3
3
3
3
3
3
3
3
3
3
3
3
3
3
3
3
3
3
3
3
3
3
3
3
3
3
2
2
3
3
3
3
3
3
2
2
3
3
3
3
3
3
3
3
3
3
3
3
3
3
3
3
3
3
3
3
3
3
3
3
3
3
3
3
3
3
3
3
3
3
3
3
3
3
3
3
3
3
3
3
3
3
3
3
3
3
3
3
3
3
3
3
3
3
3
3
3
3
3
3
3
3
3
3
3
3
3
3
3
3
3
3
3
3
3
3
3
3
3
3
3
3
3
3
3
3
3
3
3
3
3
3
3
3
3
3
3
3
3
3
3
3
3
3
3
3
3
3
3
3
3
3
3
3
3
3
3
3
3
3
3
3
3
3
3
3
3
3
3
3
3
3
3
3
3
3
3
3
3
3
3
3
3
3
3
3
3
3
3
3
3
3
3
3
3
3
3
3
3
3
3
3
3
3
3
3
3
3
3
3
3
3
3
3
3
3
3
3
3
3
3
3
3
3
3
3
3
3
3
3
3
3
3
3
3
3
3
3
3
3
3
3
3
3
3
3
3
3
3
3
3
3
3
3
3
3
3
3
3
3
3
3
3
3
3
3
3
3
3
3
3
3
3
3
3
3
3
3
3
3
3
3
3
3
3
3
3
3
3
3
3
3
3
3
3
3
3
3
3
3
3
3
3
3
3
3
3
3
3
3
3
3
3
3
3
3
3
3
3
3
3
3
3
3
3
3
3
3
3
3
3
3
3
3
3
3
3
3
3
3
3
3
3
3
3
3
3
3
3
3
3
3
3
3
3
3
3
3
3
3
3
3
3
3
3
3
3
3
3
3
3
3
3
3
3
3
3
3
3
3
3
3
3
3
3
3
3
3
3
3
3
3
3
3
3
3
3
3
3
3
3
3
3
3
3
3
3
3
3
3
3
3
3
3
3
3
3
3
3
3
3
3
3
3
3
3
3
3
3
3
3
3
3
3
3
3
3
3
3
3
3
3
3
3
3
3
3
3
3
3
3
3
3
3
3
3
3
3
3
3
3
3
3
3
3
3
3
3
3
3
3
3
3
3
3
3
3
3
3
3
3
3
3
3
3
3
3
3
3
3
3
3
3
3
3
3
3
3
3
3
3
3
3
3
3
3
3
3
3
3
3
3
3
3
3
3
3
3
3
3
3
3
3
3
3
3
3
3
3
3
3
3
3
3
3
3
3
3
3
3
3
3
3
3
3
3
3
3
3
3
3
3
3
3
3
3
3
3
3
3
3
3
3
3
3
3
3
3
3
3
3
3
3
3
3
3
3
3
3
3
3
3
3
3
3
3
3
3
3
3
3
3
3
3
3
3
3
3
3
3
3
3
3
3
3
3
3
3
3
3
3
3
3
3
3
3
3
3
3
3
3
3
3
3
3
3
3
3
3
3
3
3
3
3
3
3
3
3
3
3
3
3
3
3
3
3
3
3
3
3
3
3
3
3
3
3
3
3
3
3
3
3
3
3
3
3
3
3
3
3
3
3
3
3
3
3
3
3
3
3
3
3
3
3
3
3
3
3
3
3
3
3
3
3
3
3
3
3
3
3
3
3
3
3
3
3
3
3
3
3
3
3
3
3
3
3
3
3
3
3
3
3
3
3
3
3
3
3
3
3
3
3
3
3
3
3
3
3
3
3
3
3
3
3
3
3
3
3
3
3
3
3
3
3
3
3
3
3
3
3
3
3
3
3
3
3
3
3
3
3
3
3
3
3
3
3
3
3
3
3
3
3
3
3
3
3
3
3
3
3
3
3
3
3
3
3
3
3
3
3
3
3
3
3
3
3
3
3
3
3
3
3
3
3
3
3
3
3
3
3
3
3
3
3
3
3
3
3
3
3
3
3
3
3
3
3
3
3
3
3
3
3
3
3
3
3
3
3
3
3
3
3
3
3
3
3
3
3
3
3
3
3
3
3
3
3
3
3
3
3
3
3
3
3
2
2
3
3
3
3
3
3
3
3
2
2
3
3
3
3
3
3
3
3
3
3
3
3
3
3
3
3
3
3
3
3
3
3
3
3
3
3
3
3
3
3
3
3
3
3
3
3
3
3
3
3
3
3
3
3
3
3
3
3
3
3
3
3
3
3
3
3
3
3
3
3
3
3
3
3
3
3
3
3
3
3
3
3
3
3
3
3
3
3
3
3
3
3
3
3
3
3
3
3
3
3
3
3
3
3
3
3
3
3
3
3
3
3
3
3
3
3
3
3
3
3
3
3
3
3
3
3
3
3
3
3
3
3
3
3
3
3
3
3
3
3
3
3
3
3
3
3
3
3
3
3
3
3
3
3
3
3
3
3
3
3
3
3
2
2
3
3
3
3
3
3
3
3
2
2
3
3
3
3
3
3
3
3
3
3
3
3
3
3
3
3
3
3
3
3
3
3
3
3
3
3
3
3
3
3
3
3
3
3
3
3
3
3
3
3
3
3
3
3
3
3
3
3
3
3
3
3
3
3
3
3
3
3
3
3
3
3
3
3
3
3
3
3
3
3
3
3
3
3
3
3
3
3
3
3
3
3
3
3
3
3
3
3
3
3
3
3
3
3
3
3
3
3
3
3
2
2
3
3
3
3
3
3
2
2
3
3
3
3
3
3
3
3
3
3
3
3
3
3
3
3
3
3
3
3
3
3
3
3
3
3
3
3
3
3
3
3
3
3
3
3
3
3
3
3
3
3
3
3
3
3
3
3
3
3
3
3
3
3
3
3
3
3
3
3
3
3
3
3
3
3
3
3
3
3
3
3
3
3
3
3
3
3
3
3
3
3
3
3
3
3
3
3
3
3
3
3
3
3
3
3
3
3
3
3
3
3
3
3
3
3
3
3
3
3
3
3
3
3
3
3
3
3
3
3
3
3
3
3
3
3
3
3
3
3
3
3
3
3
3
3
3
3
3
3
3
3
3
3
3
3
3
3
3
3
3
3
3
3
3
3
3
3
3
3
3
3
3
3
3
3
3
3
3
3
3
3
3
3
3
3
3
3
3
3
3
3
3
3
3
3
3
3
3
3
3
3
3
3
3
3
3
3
3
3
3
3
3
3
3
3
3
3
3
3
3
3
3
3
3
3
3
3
3
3
3
3
3
3
3
3
3
3
3
3
3
3
3
3
3
3
3
3
3
3
3
3
3
3
3
3
3
3
3
3
3
3
3
3
3
3
3
3
3
3
3
3
3
3
3
3
3
3
3
3
3
3
3
3
3
3
3
3
3
3
3
3
3
3
3
3
3
3
3
3
3
3
3
3
3
3
3
3
3
3
3
3
3
3
3
3
3
3
3
3
3
3
3
3
3
3
3
3
3
3
3
3
3
3
3
3
3
3
3
3
3
3
3
3
3
3
3
3
SCALARS CharacterAngle float 1
LOOKUP_TABLE default
0.0
82.308010
82.356052
87.806541
88.972843
89.099202
89.525098
89.584118
87.998057
82.048906
81.939074
87.812560
89.351727
89.538027
89.621568
89.740193
88.136559
78.648584
78.719954
85.807528
88.334312
89.406422
89.928097
89.774428
89.696073
89.605721
89.549331
89.515110
89.410259
89.342687
89.385584
89.508046
89.556087
89.651062
89.665787
89.639123
89.730093
89.768238
89.629755
89.165847
87.543418
81.421908
81.455316
87.584841
89.186059
89.775338
89.939255
89.947898
89.927277
89.857036
89.785958
89.754369
89.752475
89.680758
89.568136
89.623121
89.608860
89.679720
89.660434
89.664295
89.732175
89.828394
89.536311
88.406305
85.912224
86.803925
86.840368
89.478346
89.926386
89.971656
89.969976
89.971997
89.974988
89.911463
89.933362
89.862620
89.835468
89.794260
89.765488
89.775595
89.793120
89.862030
89.843115
89.908862
89.880183
89.936878
89.974362
89.992688
89.815576
88.385123
88.346931
89.682788
89.861123
89.818067
89.827965
89.801044
89.738436
89.727568
89.673354
89.643910
89.578423
89.550062
89.554149
89.619940
89.629585
89.673046
89.727270
89.715400
89.711675
89.781166
89.865034
89.954981
89.572871
89.174821
89.259677
89.593065
89.615908
89.501495
89.487760
89.418878
89.217492
89.193230
89.402634
89.512439
89.598922
89.717818
89.713092
87.247530
87.133133
89.449524
89.976709
89.927560
89.968744
89.980025
89.862895
89.711543
89.767831
89.814467
89.826793
89.920503
89.942986
80.364849
80.413315
86.934662
88.935704
89.641102
89.835981
89.869375
89.822301
89.757554
89.646863
89.726947
89.700822
89.743605
89.985234
89.275110
87.278732
80.724278
80.679255
87.065183
88.886226
89.562594
89.699861
89.744624
89.650320
89.602656
89.522711
89.583678
89.659135
89.696385
89.962022
89.111873
87.065559
79.455670
79.596028
86.453471
88.684022
89.344106
89.383017
89.348918
89.336773
89.443783
89.435358
89.155430
88.937941
89.043410
89.253242
89.572154
89.740591
89.873259
89.621769
88.357289
85.222725
77.529820
77.668883
85.139237
87.822939
88.892608
89.363975
89.648865
89.857579
89.920259
89.981393
89.947649
89.898699
89.920834
89.926913
89.877053
89.756088
89.601959
89.433655
88.682944
86.570375
81.991035
81.847318
88.307045
89.844517
89.170723
89.022115
88.784944
88.867505
89.358451
89.431649
89.141271
87.508561
81.322247
81.496543
88.035663
89.962755
89.250236
88.914123
88.377073
88.462729
89.079976
89.150096
89.012958
87.680900
89.857202
89.811973
89.879447
89.956213
89.982273
89.970083
89.905634
89.993549
89.990651
89.973719
89.957223
89.915264
89.918800
89.953391
89.962022
89.934177
89.901275
89.958284
89.971557
89.892619
89.789653
89.768242
89.822893
89.873591
89.876584
89.979169
89.984545
89.996341
89.958848
89.981986
89.994463
89.876189
89.849861
89.924205
89.964130
89.950399
89.992924
89.880321
89.887646
89.858842
75.045622
75.043574
81.523816
85.523974
87.765416
89.610712
88.861833
87.309702
85.224692
81.363915
74.995764
75.064568
81.556569
85.418902
87.627959
89.553363
88.752546
87.157239
85.131178
81.425611
79.326965
79.263854
86.241884
88.612051
89.631995
89.851495
89.746727
89.743474
89.674906
89.337698
88.396718
86.103628
79.253698
79.266038
86.284434
88.764316
89.731173
89.804465
89.708078
89.737041
89.741109
89.387966
88.514071
86.141950
75.378399
75.344290
81.763814
85.698171
87.942716
89.888641
88.570141
87.133186
85.208933
81.585701
75.420723
75.502485
81.807605
85.613739
87.757945
89.745780
88.559542
87.065097
85.129411
81.510401
85.990526
85.896421
89.349883
89.996928
89.996492
89.994357
89.988164
89.972397
89.985358
89.958205
89.941846
88.953968
84.524748
84.540553
89.144062
89.619829
89.403999
89.390887
89.337708
89.534308
89.791782
89.922808
89.916716
89.201359
84.197544
84.240080
88.791322
89.784815
89.885715
89.791713
89.734341
89.630292
89.705301
89.703724
89.960056
88.719863
83.443236
83.418911
88.624243
89.851853
89.928455
89.867640
89.951027
89.923879
89.859856
89.870112
89.903278
88.896604
84.059808
84.077182
88.894439
89.953774
89.857547
89.879270
89.933252
89.966304
89.872593
89.918220
89.966075
88.955556
84.349688
84.368481
88.941570
89.914383
89.936428
89.978567
89.894851
89.861537
89.904541
89.908983
89.971716
88.895023
79.123883
79.076314
86.005864
88.363636
89.407831
89.950762
89.981062
89.981686
89.925334
89.449309
88.453554
86.159703
79.345860
79.267194
86.127919
88.505836
89.520110
89.934311
89.902523
89.805566
89.888335
89.652997
88.561763
86.071511
73.697006
73.779432
80.693937
84.915305
87.782470
89.162536
85.649563
80.980294
73.719309
73.657229
80.751457
85.111858
87.982345
89.223104
85.786138
81.136978
87.220901
87.068944
89.636888
89.946690
89.794210
89.730698
89.661600
89.618977
89.703927
89.783092
89.796526
89.804330
89.662607
89.356051
86.716621
86.722140
89.520678
89.840097
89.627493
89.559382
89.491720
89.452768
89.555851
89.723334
89.814203
89.808234
89.678311
89.357307
79.472950
79.343600
86.380923
88.740344
89.513243
89.803293
89.879976
89.947363
89.994783
89.895407
89.886940
89.818970
89.732217
89.422553
88.707755
86.249754
79.255309
79.131418
86.038942
88.692593
89.585171
89.955853
89.980752
89.985975
89.972254
89.901580
89.905223
89.867202
89.858056
89.519773
88.650839
86.145406
77.926409
77.919364
85.313364
88.155248
89.408374
89.878476
89.545511
89.137986
88.046241
85.347595
78.100174
78.118653
85.455871
88.239255
89.391072
89.976600
89.761013
89.279110
88.099200
85.291143
77.726756
77.702089
84.905996
87.883017
89.150065
89.788910
89.858833
89.880379
89.955386
89.977862
89.838163
89.124838
87.785305
84.677026
77.475311
77.482898
84.623415
87.661953
88.944650
89.657481
89.917436
89.970320
89.845342
89.767449
89.582844
88.918020
87.686775
84.779789
75.399552
75.525187
82.877198
86.438362
88.060470
88.935987
89.572116
89.779106
89.302358
88.540498
87.107161
83.680042
76.172168
76.166612
83.492862
86.691330
88.048508
88.717467
88.769585
89.305790
89.791103
88.783772
87.010993
83.268986
80.938097
80.776832
87.521260
89.446529
89.820237
89.503101
88.975202
88.938784
89.087639
89.016799
88.550859
86.733228
80.093707
80.197147
87.409106
89.929143
89.114884
88.844061
88.487101
88.639239
89.279739
89.378995
89.027226
87.198149
88.362213
88.415304
89.704203
89.998369
89.903683
89.943441
89.999069
89.899316
89.899451
89.895974
89.990153
89.735868
88.333348
88.374609
89.744996
89.890077
89.922899
89.937146
89.992906
89.974218
89.982187
89.923185
89.890992
89.774339
80.902911
80.908058
87.376896
89.446341
89.640154
89.230131
89.114450
89.098120
89.095957
89.071106
88.867187
88.955217
89.307460
89.407413
89.558982
89.682487
89.736677
89.751335
89.513241
88.507681
83.987361
84.049056
88.768839
89.862153
89.877162
89.809428
89.796197
89.848525
89.926904
89.895374
89.920746
89.983319
89.983645
89.894731
89.906881
89.854349
89.846418
89.920067
89.208172
87.350459
79.573133
79.542030
86.667603
89.337523
89.492744
88.952790
88.879199
88.671626
88.837297
89.492081
89.650288
89.570942
88.863031
86.748181
80.252012
80.362113
86.962182
89.057431
89.861313
89.711542
89.498528
89.269568
89.290384
89.441945
89.322245
89.077337
88.346893
86.240560
84.957452
84.814150
89.140442
89.795255
89.359117
89.221359
89.168140
89.104380
89.351844
89.813958
89.899862
89.895161
89.704251
88.813178
84.758017
84.807097
88.966669
89.976873
89.619243
89.415740
89.319815
89.213454
89.328188
89.572503
89.664597
89.546964
89.392308
88.658800
78.031896
78.114672
84.995206
87.866832
88.988647
89.535269
89.593534
89.636865
89.915667
89.372432
88.073740
84.983740
77.844672
77.875848
84.957940
87.778449
88.844858
89.493827
89.643095
89.815133
89.823651
89.096490
88.002207
85.202540
85.918516
85.962938
89.149746
89.634834
89.753651
89.860590
89.809252
89.745173
89.641730
89.727226
89.802576
89.898991
89.969020
89.708147
87.688251
87.512584
89.420450
89.725145
89.783768
89.702313
89.584559
89.202356
89.033745
89.156853
89.155342
89.240262
89.565329
89.483468
80.014299
79.905142
86.893331
89.162985
89.996846
89.741978
89.648585
89.655146
89.664788
89.464716
88.741183
86.505867
79.654168
79.645015
86.584939
89.052515
89.974140
89.554339
89.403142
89.495415
89.576935
89.436517
88.702934
86.556586
79.456827
79.470644
86.637182
88.980087
89.687563
89.694272
89.773451
89.955299
89.237326
86.726761
79.340074
79.282024
86.435621
88.763716
89.545729
89.709058
89.987197
89.773207
88.962993
86.629464
78.539780
78.545792
85.955750
88.663620
89.649745
89.878255
89.933886
89.705343
88.703424
86.046040
78.663933
78.646092
85.917880
88.486424
89.484376
89.782861
89.972256
89.569915
88.548963
85.890173
75.851097
75.897754
82.084213
85.460239
87.277049
88.658588
89.933439
88.071469
85.965550
82.327536
75.887176
75.812163
82.142876
85.609490
87.432720
88.693245
89.991623
88.174740
86.090232
82.397323
77.762130
77.785333
84.911821
87.926992
89.299817
89.962496
89.771782
89.144018
87.819262
84.800123
77.652125
77.702132
84.843729
87.756754
89.035699
89.935877
89.544322
88.829026
87.623335
84.829993
85.856904
85.903979
89.251584
89.927892
89.760177
89.750505
89.732490
89.824765
89.782371
89.816869
89.952857
89.987630
89.973377
89.939504
89.924578
89.228292
86.003795
86.083778
89.375031
89.961033
89.951315
89.883596
89.873284
89.832663
89.832680
89.887114
89.976202
89.948639
89.997789
89.908538
89.826392
89.283717
79.527249
79.468611
86.472826
88.765474
89.787286
89.488710
89.234779
89.099977
88.316677
86.241021
79.516569
79.578974
86.585882
89.007481
89.992325
89.452134
89.363605
89.323986
88.530746
86.298194
77.073685
77.018720
84.578328
87.948705
89.333600
89.961549
89.528025
89.302545
89.231301
88.762818
87.461926
84.169115
76.727616
76.756334
84.187479
87.432378
88.870725
89.745631
89.352372
88.841378
88.731013
88.155494
87.036177
84.158583
89.979983
89.994505
89.988655
89.924864
89.982905
89.921359
89.931634
89.954833
89.954781
89.951310
89.932150
89.969146
89.946258
89.917165
89.989068
89.962643
89.906848
89.964254
89.976709
89.898343
89.896625
89.923543
89.968441
89.971759
89.929397
89.981654
89.989291
89.906518
87.447911
87.434792
89.821224
89.723479
89.711148
89.708893
89.669097
89.752655
89.836547
89.929875
89.970105
89.636987
87.564474
87.691813
89.844978
89.922444
89.966813
89.903747
89.767941
89.759335
89.765642
89.766681
89.836687
89.640572
88.267253
88.304291
89.720074
89.938024
89.841563
89.779678
89.746324
89.861078
89.897471
89.956240
89.907458
89.895064
89.904760
89.952293
89.955463
89.835264
89.524880
89.537503
89.709598
89.711128
89.750691
89.794605
89.886055
89.849158
89.813405
89.745376
89.770362
89.776596
89.928026
89.977690
89.919273
89.728011
83.070072
83.154810
88.389600
89.644363
89.820566
89.747929
89.647408
89.595539
89.694636
89.677868
89.932672
88.677140
83.286488
83.226896
88.465385
89.600687
89.797572
89.756236
89.629089
89.503766
89.595735
89.620425
89.956746
88.663696
77.328994
77.260346
84.510565
87.793240
89.160412
89.998311
89.543184
89.363678
89.328979
88.658669
87.429132
84.310495
77.310480
77.329320
84.466539
87.793924
89.167935
89.995660
89.512478
89.417596
89.338498
88.654704
87.420801
84.271088
77.372453
77.384176
84.417895
87.361543
88.702961
89.577341
89.792425
89.874787
89.723827
88.770026
87.342952
84.276956
77.133825
77.142783
84.335123
87.469935
88.980827
89.853901
89.934996
89.898362
89.781112
88.969981
87.530852
84.497723
81.260101
81.326199
87.381404
89.282397
89.914046
89.885914
89.959242
89.991439
89.824131
89.786768
89.817158
89.983889
89.390626
87.486206
81.392725
81.418498
87.508636
89.323977
89.873418
89.970262
89.984854
89.943545
89.799006
89.814535
89.770754
89.974740
89.415729
87.535011
81.020322
80.901474
87.266843
89.195092
89.837477
89.879850
89.746386
89.804596
89.809565
89.578376
89.010524
87.154660
80.978964
80.918191
87.205474
89.312191
89.915160
89.617983
89.620680
89.911200
89.982239
89.877625
89.152803
87.107055
78.944224
78.943720