# vtk DataFile Version 3.0
Dislocation network (FCC crystal) exported from OpenDiS
ASCII
DATASET UNSTRUCTURED_GRID
POINTS 4310 FLOAT
0.00000000e+00 0.00000000e+00 0.00000000e+00
1.95620000e+04 0.00000000e+00 0.00000000e+00
0.00000000e+00 1.95620000e+04 0.00000000e+00
0.00000000e+00 0.00000000e+00 1.95620000e+04
1.95620000e+04 1.95620000e+04 0.00000000e+00
1.95620000e+04 0.00000000e+00 1.95620000e+04
0.00000000e+00 1.95620000e+04 1.95620000e+04
1.95620000e+04 1.95620000e+04 1.95620000e+04
2.20595102e+03 6.20977253e+03 1.26506995e+04
2.24826454e+03 6.19875735e+03 1.26819978e+04
2.20595102e+03 6.20977253e+03 1.26506995e+04
2.25784848e+03 6.22401601e+03 1.26130455e+04
1.92587570e+03 1.70184776e+04 1.60201505e+04
1.86065457e+03 1.70584632e+04 1.59949150e+04
1.92587570e+03 1.70184776e+04 1.60201505e+04
2.00013896e+03 1.69671120e+04 1.60430482e+04
2.43681597e+03 6.12489486e+03 1.27966867e+04
2.34265125e+03 6.16388380e+03 1.27415110e+04
2.43681597e+03 6.12489486e+03 1.27966867e+04
2.56758520e+03 6.06537181e+03 1.28679329e+04
2.56758520e+03 6.06537181e+03 1.28679329e+04
2.69449423e+03 6.00467868e+03 1.29341488e+04
2.69449423e+03 6.00467868e+03 1.29341488e+04
2.81835060e+03 6.06649228e+03 1.28721061e+04
2.81835060e+03 6.06649228e+03 1.28721061e+04
2.95158640e+03 6.12849861e+03 1.28008766e+04
2.95158640e+03 6.12849861e+03 1.28008766e+04
3.04692986e+03 6.16832546e+03 1.27453600e+04
1.02295878e+04 8.48541258e+03 1.47145824e+04
1.02217306e+04 8.47543728e+03 1.47124644e+04
1.02295878e+04 8.48541258e+03 1.47145824e+04
1.02996059e+04 8.58774385e+03 1.47468956e+04
3.18303743e+03 6.21392628e+03 1.26548532e+04
3.14051940e+03 6.20293433e+03 1.26863793e+04
3.18303743e+03 6.21392628e+03 1.26548532e+04
3.13067640e+03 6.22814899e+03 1.26167149e+04
6.96036754e+03 4.32844051e+03 9.36382712e+03
7.05149207e+03 4.36688242e+03 9.41650973e+03
6.96036754e+03 4.32844051e+03 9.36382712e+03
6.87374725e+03 4.29934019e+03 9.30630714e+03
2.94451491e+03 6.30205219e+03 1.25044566e+04
3.03519976e+03 6.26410711e+03 1.25571964e+04
2.94451491e+03 6.30205219e+03 1.25044566e+04
2.81724771e+03 6.36058612e+03 1.24357233e+04
2.81724771e+03 6.36058612e+03 1.24357233e+04
2.69449423e+03 6.41992363e+03 1.23723074e+04
2.69449423e+03 6.41992363e+03 1.23723074e+04
2.57109315e+03 6.35847866e+03 1.24342635e+04
2.57109315e+03 6.35847866e+03 1.24342635e+04
2.44338678e+03 6.29860214e+03 1.25020933e+04
2.44338678e+03 6.29860214e+03 1.25020933e+04
2.35220562e+03 6.25994361e+03 1.25546160e+04
7.78710669e+03 4.33144076e+03 9.36272588e+03
7.87547411e+03 4.30178877e+03 9.30401044e+03
7.78710669e+03 4.33144076e+03 9.36272588e+03
7.69605950e+03 4.36970600e+03 9.41550782e+03
1.68050128e+04 1.69578412e+04 1.30341857e+04
1.67081768e+04 1.69805222e+04 1.31083408e+04
1.68050128e+04 1.69578412e+04 1.30341857e+04
1.67273605e+04 1.69406275e+04 1.29737470e+04
5.97514585e+03 2.07664011e+03 7.42948701e+03
5.92963061e+03 2.01952247e+03 7.32685413e+03
5.97514585e+03 2.07664011e+03 7.42948701e+03
6.03200335e+03 2.15354070e+03 7.56324510e+03
1.66343118e+04 1.69120656e+04 1.29092602e+04
1.67273605e+04 1.69406275e+04 1.29737470e+04
1.66343118e+04 1.69120656e+04 1.29092602e+04
1.65028596e+04 1.68643205e+04 1.28255532e+04
1.65028596e+04 1.68643205e+04 1.28255532e+04
1.63724666e+04 1.68124635e+04 1.27470171e+04
1.63724666e+04 1.68124635e+04 1.27470171e+04
1.62389094e+04 1.67569778e+04 1.26689457e+04
1.62389094e+04 1.67569778e+04 1.26689457e+04
1.61130510e+04 1.67033397e+04 1.25967253e+04
1.61130510e+04 1.67033397e+04 1.25967253e+04
1.59992725e+04 1.66536773e+04 1.25326092e+04
1.59992725e+04 1.66536773e+04 1.25326092e+04
1.58874157e+04 1.66034070e+04 1.24710228e+04
1.58874157e+04 1.66034070e+04 1.24710228e+04
1.57709180e+04 1.65493410e+04 1.24085911e+04
1.57709180e+04 1.65493410e+04 1.24085911e+04
1.56522799e+04 1.64924002e+04 1.23468937e+04
1.56522799e+04 1.64924002e+04 1.23468937e+04
1.55317264e+04 1.64327277e+04 1.22860127e+04
1.55317264e+04 1.64327277e+04 1.22860127e+04
1.54204365e+04 1.63758466e+04 1.22316040e+04
1.54204365e+04 1.63758466e+04 1.22316040e+04
1.52986073e+04 1.64341095e+04 1.22951704e+04
1.52986073e+04 1.64341095e+04 1.22951704e+04
1.51818132e+04 1.64895441e+04 1.23565298e+04
1.51818132e+04 1.64895441e+04 1.23565298e+04
1.50646863e+04 1.65439214e+04 1.24192794e+04
1.50646863e+04 1.65439214e+04 1.24192794e+04
1.49495185e+04 1.65960128e+04 1.24823558e+04
1.49495185e+04 1.65960128e+04 1.24823558e+04
1.48394425e+04 1.66445425e+04 1.25439022e+04
1.48394425e+04 1.66445425e+04 1.25439022e+04
1.47261055e+04 1.66933387e+04 1.26084429e+04
1.47261055e+04 1.66933387e+04 1.26084429e+04
1.46008387e+04 1.67463702e+04 1.26806783e+04
1.46008387e+04 1.67463702e+04 1.26806783e+04
1.44693298e+04 1.68010527e+04 1.27575047e+04
1.44693298e+04 1.68010527e+04 1.27575047e+04
1.43385958e+04 1.68535488e+04 1.28357425e+04
1.43385958e+04 1.68535488e+04 1.28357425e+04
1.42024003e+04 1.69030652e+04 1.29224216e+04
6.13240712e+03 2.34816646e+03 7.85827463e+03
6.13399743e+03 2.35459616e+03 7.86629464e+03
6.13240712e+03 2.34816646e+03 7.85827463e+03
6.11486001e+03 2.29734849e+03 7.78990955e+03
8.92138912e+03 1.48642494e+04 1.18513597e+04
8.97292100e+03 1.49404718e+04 1.18760502e+04
8.92138912e+03 1.48642494e+04 1.18513597e+04
8.86430787e+03 1.47672860e+04 1.18114776e+04
1.40358603e+04 1.69497615e+04 1.30422654e+04
1.40696540e+04 1.69423868e+04 1.30158464e+04
1.40358603e+04 1.69497615e+04 1.30422654e+04
1.41306134e+04 1.69728685e+04 1.31139115e+04
1.41306134e+04 1.69728685e+04 1.31139115e+04
1.42726588e+04 1.70248421e+04 1.32039834e+04
1.42726588e+04 1.70248421e+04 1.32039834e+04
1.43911105e+04 1.70737833e+04 1.32734939e+04
1.43911105e+04 1.70737833e+04 1.32734939e+04
1.45141168e+04 1.71270964e+04 1.33431870e+04
1.45141168e+04 1.71270964e+04 1.33431870e+04
1.46403607e+04 1.71826220e+04 1.34139053e+04
1.46403607e+04 1.71826220e+04 1.34139053e+04
1.47581169e+04 1.72348660e+04 1.34794176e+04
1.47581169e+04 1.72348660e+04 1.34794176e+04
1.48642898e+04 1.72824436e+04 1.35380128e+04
1.48642898e+04 1.72824436e+04 1.35380128e+04
1.49703790e+04 1.73304975e+04 1.35960481e+04
1.49703790e+04 1.73304975e+04 1.35960481e+04
1.50819519e+04 1.73817987e+04 1.36563198e+04
1.50819519e+04 1.73817987e+04 1.36563198e+04
1.51949589e+04 1.74346970e+04 1.37164285e+04
1.51949589e+04 1.74346970e+04 1.37164285e+04
1.53082051e+04 1.74888975e+04 1.37754742e+04
1.53082051e+04 1.74888975e+04 1.37754742e+04
1.54204365e+04 1.75441342e+04 1.38324690e+04
1.54204365e+04 1.75441342e+04 1.38324690e+04
1.55326839e+04 1.74889286e+04 1.37754272e+04
1.55326839e+04 1.74889286e+04 1.37754272e+04
1.56449640e+04 1.74352043e+04 1.37168714e+04
1.56449640e+04 1.74352043e+04 1.37168714e+04
1.57578756e+04 1.73824234e+04 1.36567407e+04
1.57578756e+04 1.73824234e+04 1.36567407e+04
1.58691651e+04 1.73313631e+04 1.35965115e+04
1.58691651e+04 1.73313631e+04 1.35965115e+04
1.59749829e+04 1.72836577e+04 1.35383992e+04
1.59749829e+04 1.72836577e+04 1.35383992e+04
1.60813748e+04 1.72364262e+04 1.34792387e+04
1.60813748e+04 1.72364262e+04 1.34792387e+04
1.61992168e+04 1.71847962e+04 1.34130267e+04
1.61992168e+04 1.71847962e+04 1.34130267e+04
1.63254091e+04 1.71302279e+04 1.33414027e+04
1.63254091e+04 1.71302279e+04 1.33414027e+04
1.64488412e+04 1.70779204e+04 1.32702782e+04
1.64488412e+04 1.70779204e+04 1.32702782e+04
1.65644210e+04 1.70313606e+04 1.32012581e+04
1.65644210e+04 1.70313606e+04 1.32012581e+04
1.67081768e+04 1.69805222e+04 1.31083408e+04
9.76426245e+03 1.58658571e+04 3.65094294e+03
9.71879285e+03 1.58092757e+04 3.66205470e+03
9.76426245e+03 1.58658571e+04 3.65094294e+03
9.81926472e+03 1.57961845e+04 3.63627262e+03
9.71879285e+03 1.58092757e+04 3.66205470e+03
9.67788027e+03 1.57508612e+04 3.67955659e+03
9.61965815e+03 1.56677324e+04 3.70446328e+03
9.67788027e+03 1.57508612e+04 3.67955659e+03
9.61965815e+03 1.56677324e+04 3.70446328e+03
9.53563670e+03 1.55365173e+04 3.75165694e+03
9.53563670e+03 1.55365173e+04 3.75165694e+03
9.45910004e+03 1.54118523e+04 3.79978529e+03
9.45910004e+03 1.54118523e+04 3.79978529e+03
9.38232411e+03 1.52838321e+04 3.85102952e+03
9.38232411e+03 1.52838321e+04 3.85102952e+03
9.31026864e+03 1.51613148e+04 3.90149140e+03
9.31026864e+03 1.51613148e+04 3.90149140e+03
9.24491680e+03 1.50481570e+04 3.94929739e+03
9.24491680e+03 1.50481570e+04 3.94929739e+03
9.18256570e+03 1.49382217e+04 3.99688160e+03
9.18256570e+03 1.49382217e+04 3.99688160e+03
9.11889350e+03 1.48237559e+04 4.04767518e+03
9.11889350e+03 1.48237559e+04 4.04767518e+03
9.05543902e+03 1.47071939e+04 4.10078272e+03
9.05543902e+03 1.47071939e+04 4.10078272e+03
8.99378607e+03 1.45912337e+04 4.15508993e+03
8.99378607e+03 1.45912337e+04 4.15508993e+03
8.93155564e+03 1.44717355e+04 4.21235774e+03
8.93155564e+03 1.44717355e+04 4.21235774e+03
8.98780019e+03 1.43579723e+04 4.15483910e+03
8.98780019e+03 1.43579723e+04 4.15483910e+03
9.04850060e+03 1.42395811e+04 4.09714831e+03
9.04850060e+03 1.42395811e+04 4.09714831e+03
9.11044705e+03 1.41223340e+04 4.04184773e+03
9.11044705e+03 1.41223340e+04 4.04184773e+03
9.17308468e+03 1.40068685e+04 3.98901986e+03
9.17308468e+03 1.40068685e+04 3.98901986e+03
9.23456468e+03 1.38961529e+04 3.93978425e+03
9.23456468e+03 1.38961529e+04 3.93978425e+03
9.29846449e+03 1.37834617e+04 3.89099285e+03
9.29846449e+03 1.37834617e+04 3.89099285e+03
9.36952281e+03 1.36607527e+04 3.83934219e+03
9.36952281e+03 1.36607527e+04 3.83934219e+03
9.44598109e+03 1.35316500e+04 3.78669774e+03
9.44598109e+03 1.35316500e+04 3.78669774e+03
9.52255941e+03 1.34057078e+04 3.73733387e+03
9.52255941e+03 1.34057078e+04 3.73733387e+03
9.60617837e+03 1.32743821e+04 3.68962710e+03
9.60617837e+03 1.32743821e+04 3.68962710e+03
9.66335885e+03 1.31925024e+04 3.66492785e+03
9.70411625e+03 1.31341397e+04 3.64732260e+03
9.66335885e+03 1.31925024e+04 3.66492785e+03
9.70411625e+03 1.31341397e+04 3.64732260e+03
9.74947525e+03 1.30776139e+04 3.63615574e+03
9.74947525e+03 1.30776139e+04 3.63615574e+03
9.80422909e+03 1.31469648e+04 3.62155862e+03
9.80422909e+03 1.31469648e+04 3.62155862e+03
[...]
CELL_DATA 2152
SCALARS SlipSystemID int 1
LOOKUP_TABLE default
0
10
7
10
10
10
10
10
7
7
7
8
8
7
10
4
4
10
10
10
7
7
7
1
1
1
4
12
12
4
4
4
4
4
4
4
4
4
4
4
1
1
1
1
1
1
1
1
1
1
12
12
8
8
1
4
4
4
4
4
4
4
4
4
4
4
4
1
1
1
1
1
1
1
1
1
1
1
5
11
5
5
5
5
5
5
5
5
5
5
5
5
11
11
11
11
11
11
11
11
11
11
11
11
11
5
5
5
5
5
5
5
5
5
5
5
5
11
11
11
11
11
11
11
11
11
11
11
2
8
10
10
2
2
10
2
2
2
2
8
8
8
8
1
1
8
8
1
1
8
2
2
2
2
2
2
2
8
8
8
8
8
8
6
9
6
6
6
6
6
6
6
6
9
9
9
9
9
9
9
9
9
6
6
6
6
6
6
6
6
6
9
9
9
9
9
9
9
9
3
12
8
8
3
3
8
3
3
3
3
3
3
3
12
12
12
12
12
12
12
12
12
6
6
9
9
12
3
3
3
3
3
3
3
3
3
3
12
12
12
12
12
12
12
12
12
10
7
10
10
10
10
10
7
7
7
7
7
7
10
10
10
10
10
10
10
7
7
7
7
7
7
4
1
4
4
4
4
4
4
4
4
4
4
1
1
1
1
1
1
1
1
1
1
1
4
4
4
4
4
4
4
4
4
4
4
1
1
1
1
1
1
1
1
1
1
5
11
3
3
5
5
5
5
11
11
11
11
3
3
11
5
9
9
5
5
5
5
11
11
11
11
9
9
2
8
2
2
2
2
2
2
8
8
8
8
8
8
8
2
2
2
2
2
2
2
8
8
8
8
8
8
6
6
6
6
6
9
9
9
9
9
6
3
3
6
6
6
3
3
6
3
3
12
12
9
9
4
4
3
12
3
3
3
3
3
12
12
12
12
12
12
3
3
3
3
3
3
3
3
3
3
12
12
12
12
12
12
2
2
10
7
1
1
10
10
10
10
10
7
7
7
7
7
7
2
2
7
10
12
12
10
10
10
10
10
7
7
7
7
7
2
4
1
8
8
4
4
4
4
4
1
1
1
1
1
3
1
4
12
4
4
4
4
4
1
1
1
1
1
10
10
5
11
5
5
5
5
5
11
11
11
11
11
11
5
5
5
5
5
5
5
11
11
11
11
11
11
2
8
5
5
2
2
2
8
8
8
12
12
8
2
2
2
2
2
2
8
8
8
2
2
6
9
6
6
6
6
6
6
6
9
9
9
9
9
9
9
9
6
6
6
6
6
6
6
6
9
9
9
9
9
9
9
3
3
3
3
3
3
3
3
12
12
12
12
12
12
12
12
3
4
4
3
3
3
4
4
3
3
3
3
12
12
12
2
2
12
12
2
2
10
7
10
10
10
10
7
7
7
7
7
10
10
10
10
10
10
7
7
7
7
7
4
4
4
4
4
4
4
1
1
1
1
1
1
1
4
11
11
4
4
11
11
4
4
4
4
1
1
1
11
11
1
1
3
5
11
5
5
5
5
5
11
11
11
11
11
11
5
5
5
5
5
5
5
11
11
11
11
11
11
2
8
2
2
2
2
2
2
8
8
8
8
8
8
8
2
2
2
2
2
2
8
8
8
8
8
6
9
6
6
6
6
6
6
9
9
9
9
9
9
9
6
6
6
6
6
6
6
9
9
9
9
9
9
3
12
3
3
3
3
3
3
3
3
3
3
12
12
12
12
12
12
12
12
12
12
12
3
3
3
3
3
3
3
3
3
3
12
12
12
12
12
12
12
12
12
10
7
10
10
10
10
10
10
7
7
7
7
7
7
7
10
10
10
10
10
10
10
10
7
7
7
7
7
7
7
4
1
4
4
4
4
4
4
1
1
1
1
1
1
1
4
4
4
4
4
4
4
4
1
1
1
1
1
1
1
5
11
6
6
5
5
6
5
5
5
11
11
11
11
11
11
10
10
11
5
5
5
5
5
5
11
11
11
11
11
2
8
10
10
2
2
2
2
2
2
8
8
8
8
8
8
1
1
2
1
1
2
2
2
2
2
2
8
8
8
8
8
8
4
4
6
9
6
6
6
6
6
9
9
9
9
9
9
9
6
1
1
6
6
5
5
6
6
6
9
9
9
9
9
9
4
4
3
12
3
3
3
3
3
12
12
12
12
12
12
3
3
3
3
3
12
12
12
12
12
10
7
10
10
10
10
10
7
7
7
7
7
7
10
10
10
10
10
7
7
7
7
4
1
4
4
4
4
1
1
1
1
1
4
4
4
4
1
1
1
1
1
5
11
5
5
5
5
5
11
11
11
11
11
11
5
5
5
5
5
11
11
11
11
2
8
2
2
2
2
2
2
2
2
8
8
8
8
8
8
8
8
8
2
2
2
2
2
2
2
2
2
8
8
8
8
8
8
8
8
9
6
4
6
6
6
6
9
9
9
1
9
6
6
6
6
6
9
9
9
9
3
12
3
3
3
3
3
12
12
12
12
12
12
3
3
3
3
3
3
12
12
12
12
12
12
10
7
10
10
10
10
10
10
7
7
7
7
7
7
7
10
10
10
10
10
10
10
7
7
7
7
7
7
4
1
4
4
4
4
4
1
1
1
1
1
1
4
4
4
4
4
4
1
1
1
1
1
5
11
5
5
5
5
5
5
5
11
11
11
11
11
11
11
11
5
5
5
5
5
5
5
5
5
11
11
11
11
11
11
11
11
4
2
1
2
2
2
2
2
8
8
8
8
8
8
5
2
2
2
8
8
8
8
2
6
9
6
6
6
6
6
9
9
9
9
9
9
6
6
6
6
6
6
9
9
9
9
9
3
12
3
3
3
3
3
3
12
12
12
12
12
12
12
3
3
3
3
3
3
12
12
12
12
12
10
7
10
10
10
10
10
10
10
7
7
7
7
7
7
7
7
10
10
10
10
10
10
10
10
7
7
7
7
7
7
4
1
4
4
4
4
4
1
1
1
1
1
1
4
4
4
4
4
1
1
1
1
1
1
5
11
5
5
5
5
5
5
5
11
11
11
11
11
11
11
11
11
5
5
5
5
5
5
5
5
11
11
11
11
11
11
11
2
8
2
2
2
2
2
8
8
8
8
8
8
2
2
2
2
2
2
8
8
8
8
8
6
9
6
6
6
6
6
9
9
9
9
9
9
6
6
6
6
6
9
9
9
9
12
3
3
3
12
12
12
12
12
12
12
3
3
3
3
3
3
3
12
12
12
12
12
7
10
10
10
7
7
7
7
6
7
10
10
10
7
7
7
7
4
1
4
4
4
4
1
1
1
1
1
4
4
4
4
4
1
1
1
1
11
5
5
5
5
5
5
11
11
11
11
11
11
9
9
5
5
5
5
11
11
11
11
11
11
9
8
2
2
2
8
8
8
8
8
2
2
2
2
2
2
8
8
8
8
8
6
9
6
6
6
6
6
6
6
9
9
9
9
9
2
9
6
6
6
6
6
6
6
9
9
9
9
9
9
9
3
12
3
3
3
3
3
3
12
12
12
12
12
12
12
3
3
3
3
3
3
3
12
12
12
12
12
12
10
7
10
10
10
10
7
7
7
7
7
10
10
10
10
10
10
7
7
7
7
7
1
4
2
4
4
4
4
4
1
1
1
1
1
8
4
1
8
8
4
4
4
4
4
1
1
1
1
1
5
11
5
5
5
5
11
11
11
8
5
5
5
5
5
11
11
11
11
2
2
2
2
8
8
8
8
2
2
2
2
2
8
8
8
8
11
6
9
6
6
6
6
9
9
9
9
9
6
9
9
9
3
12
3
3
3
3
12
12
12
12
11
12
3
3
3
3
3
3
12
12
12
12
12
10
7
10
10
10
10
10
10
10
7
7
7
7
7
7
7
7
10
10
10
10
10
10
10
7
7
7
7
7
7
7
4
4
4
1
1
9
9
4
4
4
4
4
1
1
1
4
5
11
5
5
5
5
5
5
5
11
11
11
11
11
11
11
11
5
5
5
5
5
5
5
11
11
11
11
11
11
2
8
2
2
2
2
2
2
2
2
8
8
8
8
8
8
8
8
8
2
2
2
2
2
2
8
8
8
8
8
8
8
8
6
9
6
6
6
6
6
9
9
9
9
9
9
6
6
6
6
6
6
9
9
9
9
12
7
1
1
3
3
12
12
3
3
3
3
3
3
12
12
12
12
12
10
7
10
10
10
10
10
10
7
7
7
7
7
7
7
7
7
10
10
10
10
10
10
10
10
7
7
7
7
7
7
7
4
1
4
4
4
4
4
4
4
4
4
1
1
1
1
1
1
1
1
1
4
4
4
4
4
4
4
4
4
4
1
1
1
1
1
1
1
1
1
5
5
5
5
11
11
11
11
11
11
11
5
4
1
5
5
5
5
11
11
11
11
8
8
2
8
2
2
2
2
8
8
8
8
2
8
2
2
2
2
8
8
8
8
8
6
9
6
6
6
6
6
9
9
9
9
9
9
6
6
6
6
6
6
9
9
9
9
3
12
3
3
3
3
12
12
12
12
12
3
12
12
12
12
12
10
7
10
10
10
10
10
10
10
10
7
7
7
7
7
7
7
7
7
10
10
10
10
10
10
10
10
7
7
7
7
7
7
7
4
1
4
4
4
4
1
1
1
1
1
4
4
4
4
4
4
1
1
1
1
1
5
11
5
5
5
5
11
11
11
11
11
5
5
5
5
5
11
11
11
11
5
5
1
1
12
12
6
4
1
4
4
1
11
5
4
5
10
7
10
7
10
7
7
4
1
4
1
2
2
3
12
10
7
2
8
7
4
5
8
5
1
10
7
2
8
3
3
12
7
4
1
3
5
11
6
9
3
12
10
7
3
12
5
11
6
9
11
2
8
12
8
11
SCALARS DislocationType int 1
LOOKUP_TABLE default
0
2
3
3
3
3
3
3
3
3
3
2
3
2
3
3
3
3
3
3
3
3
3
3
3
2
2
3
3
3
3
3
3
3
3
3
3
3
3
3
3
3
3
3
3
3
3
3
3
3
2
2
3
3
2
2
3
3
3
3
3
3
3
3
3
3
3
3
3
3
3
3
3
3
3
3
3
3
2
2
3
3
3
3
3
3
3
3
3
3
3
3
3
3
3
3
3
3
3
3
3
3
3
3
2
2
3
3
3
3
3
3
3
3
3
3
3
3
3
3
3
3
3
3
3
3
3
3
3
3
3
3
3
3
2
3
3
3
3
3
3
3
3
3
3
3
3
2
3
2
3
3
3
3
3
3
3
3
3
3
3
3
3
2
2
3
3
3
3
3
3
3
3
3
3
3
3
3
3
3
3
2
2
3
3
3
3
3
3
3
3
3
3
3
3
3
3
3
3
2
2
3
3
3
3
2
3
3
3
3
3
3
3
3
3
3
3
3
3
3
3
3
3
3
3
3
2
2
3
3
3
3
3
3
3
3
3
3
3
3
3
3
3
3
3
3
2
2
3
3
3
3
3
3
3
3
3
3
2
2
3
3
3
3
3
3
3
3
3
3
3
3
2
2
2
2
3
3
3
3
3
3
3
3
3
3
3
3
3
3
3
3
2
2
2
2
2
2
3
3
3
3
3
3
3
3
3
3
3
3
3
3
3
3
2
2
2
2
3
3
3
3
3
3
3
3
3
3
2
3
2
2
3
3
3
3
3
3
3
3
3
3
2
3
2
2
3
3
3
3
3
3
3
3
3
3
3
3
2
2
3
3
3
3
3
3
3
3
3
3
3
3
2
3
3
3
3
3
3
3
3
2
2
3
3
3
3
3
3
3
3
2
3
3
3
3
3
3
2
2
2
3
3
3
3
3
3
3
3
3
3
2
2
3
3
3
3
2
3
3
3
3
3
3
3
3
3
3
3
3
3
3
2
3
3
3
3
3
3
3
3
3
3
3
3
2
3
2
3
2
3
3
3
3
3
3
3
3
3
3
3
3
2
2
3
3
3
3
3
3
3
3
3
3
3
3
3
2
2
3
3
3
3
3
3
3
3
3
3
3
3
2
2
2
3
3
3
3
3
3
3
3
3
3
2
2
3
3
3
3
3
3
3
3
3
3
3
3
2
3
3
2
3
3
3
3
3
3
3
3
2
3
3
3
3
3
3
3
3
3
2
3
2
2
3
3
3
3
3
3
3
3
3
3
3
3
3
3
2
2
3
3
3
3
3
3
3
3
3
3
3
3
3
3
2
3
3
3
3
3
3
3
3
3
3
3
3
3
3
2
2
3
3
3
3
3
2
3
3
3
3
3
3
3
3
3
3
3
3
2
3
2
2
3
3
3
3
3
3
3
3
2
2
3
3
3
3
3
3
3
3
3
3
2
3
3
3
3
3
3
3
3
3
3
3
3
2
2
2
3
3
3
2
3
3
3
3
3
3
3
3
3
3
3
3
3
2
2
3
3
3
3
3
3
3
3
3
3
2
2
3
3
3
3
3
3
3
3
3
3
3
3
2
2
3
3
3
3
3
3
3
3
3
3
3
3
2
2
3
3
3
3
3
3
3
3
3
3
2
2
3
3
3
3
3
3
3
3
3
3
3
3
2
2
3
3
3
3
3
3
3
3
3
3
3
3
2
2
3
3
3
3
3
3
3
3
3
3
3
3
3
3
3
3
3
3
3
3
2
3
3
3
3
3
3
3
3
3
3
3
3
3
3
3
3
3
3
3
2
2
3
3
3
3
3
3
3
3
3
3
3
3
2
2
3
3
3
3
3
3
3
3
3
3
3
3
3
3
2
2
3
3
3
3
3
3
3
3
3
3
3
3
2
2
3
3
3
3
3
3
3
3
3
3
3
3
3
3
2
2
3
3
3
3
2
3
3
3
3
3
3
3
3
3
3
3
2
2
3
3
3
3
3
3
3
3
3
3
3
3
2
3
3
3
3
3
3
3
3
3
3
3
3
3
3
3
3
3
3
3
3
3
3
3
3
3
3
3
3
3
3
3
3
2
2
3
3
3
3
3
3
3
3
3
3
3
2
2
3
3
3
3
3
3
3
3
3
3
3
3
3
3
3
3
3
2
2
3
3
3
3
3
3
3
3
3
3
2
2
3
3
3
3
3
3
3
3
3
2
2
3
3
3
3
3
3
3
3
3
3
2
2
3
3
3
3
3
3
3
3
2
2
3
3
3
3
3
3
3
3
2
3
3
2
3
3
3
2
3
3
2
2
3
3
3
3
3
3
3
3
3
3
2
2
3
3
3
3
3
3
3
3
2
2
3
3
3
3
3
3
3
3
3
3
3
3
3
3
3
3
2
2
3
3
3
3
3
3
3
3
3
3
3
3
3
3
3
3
3
3
2
3
3
3
3
3
3
3
2
2
2
3
3
3
3
3
3
3
3
3
2
3
3
3
3
3
3
3
3
3
3
3
2
3
3
3
3
3
3
3
3
3
3
3
2
2
3
3
3
3
3
3
3
3
3
3
3
3
2
2
3
3
3
3
3
3
3
3
3
3
3
3
2
2
3
3
3
3
3
3
3
3
3
3
2
2
3
3
3
3
3
3
3
3
3
3
3
3
3
3
3
3
3
3
3
3
3
3
3
3
3
3
3
3
3
3
3
3
3
3
3
3
3
3
3
3
3
3
3
3
3
3
3
3
3
3
3
3
3
3
3
3
3
3
3
3
3
3
3
3
3
3
3
2
2
3
3
3
3
3
3
3
3
3
3
2
2
3
3
3
3
3
3
3
3
3
3
2
2
3
3
3
3
3
3
3
3
3
3
3
3
2
2
3
3
3
3
3
3
3
3
3
3
2
2
3
3
3
3
3
3
3
3
3
3
3
3
3
3
2
2
3
3
3
3
3
3
3
3
3
3
3
3
3
2
2
3
3
3
3
3
3
3
3
3
3
2
2
3
3
3
3
3
3
3
3
3
3
2
2
3
3
3
3
3
3
3
3
3
3
3
3
3
3
3
2
2
3
3
3
3
3
3
3
3
3
3
3
3
3
3
2
2
3
3
3
3
3
3
3
3
3
3
2
2
3
3
3
3
3
3
3
3
3
3
2
2
3
3
3
3
3
3
3
3
3
3
2
2
3
3
3
3
3
3
3
3
3
3
3
3
3
3
3
3
3
3
2
2
3
3
3
3
3
3
3
3
3
3
3
3
3
3
3
3
3
3
3
3
2
3
3
3
3
3
3
3
3
2
3
3
3
3
3
3
3
3
3
2
3
3
3
3
3
3
3
3
3
3
3
3
3
3
3
3
3
3
3
3
3
3
3
3
3
3
3
3
3
3
3
3
3
3
2
3
3
3
3
3
3
3
2
2
3
3
3
3
3
3
3
3
3
3
2
2
3
3
3
3
3
3
3
3
3
3
3
3
3
2
2
3
3
3
3
3
3
3
3
3
3
3
3
3
2
2
3
3
3
3
3
3
3
3
3
3
3
3
2
2
3
3
3
3
3
3
3
3
3
3
3
3
2
2
3
3
3
3
3
3
3
3
2
2
3
3
3
3
3
3
3
3
3
3
3
3
3
3
3
3
3
3
3
3
3
3
3
3
3
3
3
3
3
3
3
3
3
3
3
3
3
3
2
2
3
3
3
3
3
3
3
3
2
3
3
3
3
3
3
3
3
3
3
3
3
3
3
3
2
3
3
3
3
3
3
3
3
3
3
3
2
3
3
3
3
3
3
3
3
3
3
3
3
3
2
2
3
3
3
3
3
3
3
3
3
2
2
3
3
3
3
3
3
3
3
3
3
2
2
3
3
3
3
3
3
3
3
3
3
3
3
3
3
2
2
3
3
3
3
3
3
3
3
3
3
3
3
3
3
3
3
3
3
3
3
2
3
3
3
3
3
3
3
3
2
2
3
3
3
3
3
3
3
3
3
3
3
3
3
3
2
2
3
3
3
3
3
3
3
3
3
3
3
3
3
2
3
3
3
3
3
3
3
3
3
3
3
3
3
3
3
3
3
3
3
3
3
3
3
3
3
3
3
3
3
3
3
2
3
3
3
3
3
3
3
3
3
3
3
2
3
3
3
3
3
3
3
3
3
3
2
3
3
3
3
3
3
3
2
3
3
3
3
3
3
3
3
3
3
2
2
3
3
3
3
3
3
3
3
3
3
3
3
3
3
2
2
3
3
3
3
3
3
3
3
3
3
3
3
3
3
2
2
3
3
3
3
3
3
3
3
3
3
3
3
3
3
3
3
3
2
2
3
3
3
3
3
3
3
3
3
3
3
3
3
3
3
3
3
3
3
3
3
3
3
3
3
3
3
3
2
2
3
3
3
3
3
3
3
3
3
3
3
3
2
2
3
3
3
3
3
3
3
3
2
3
3
3
3
3
3
3
3
3
3
2
2
3
3
3
3
3
3
3
3
3
3
2
2
3
3
3
3
3
3
3
3
3
3
2
3
3
3
3
3
3
3
3
3
3
3
3
3
3
3
2
2
3
3
3
3
3
3
3
3
3
3
3
3
3
3
3
3
2
2
3
3
3
3
3
3
3
3
3
3
3
3
3
3
2
2
3
3
3
3
3
3
3
3
2
2
3
3
3
3
3
3
3
3
3
3
3
3
3
3
3
3
3
3
3
3
3
3
3
3
3
3
3
3
3
3
3
3
2
3
2
3
3
3
3
3
3
3
3
3
3
3
3
3
3
3
3
3
3
3
3
3
3
3
3
3
3
3
3
3
3
3
3
3
3
3
3
3
3
3
3
2
3
3
3
3
3
2
3
3
3
3
3
3
3
3
3
3
3
3
3
3
3
3
3
3
3
3
SCALARS CharacterAngle float 1
LOOKUP_TABLE default
0.0
74.530294
75.402294
82.560908
77.520444
84.332179
87.037129
88.560757
89.938793
87.711298
84.572681
71.624878
77.990477
74.419840
75.227305
84.844345
79.273800
84.619114
87.350840
88.901068
89.862981
87.940740
84.983085
79.248304
84.740539
72.938976
72.183606
86.265714
85.055453
77.433794
81.024379
83.262927
84.423598
85.127747
85.805254
86.657282
87.625892
88.673962
89.668412
89.265179
88.560251
88.322404
87.636777
86.847964
86.094325
85.414434
84.941923
84.447389
83.514397
81.047329
70.792623
74.305916
78.507749
84.152783
71.977087
73.523964
81.197508
84.274785
85.603618
86.025469
86.277946
86.571384
86.890759
87.342262
87.890351
88.584979
89.481809
89.458899
88.576838
87.847735
87.276700
86.750161
86.296160
85.913606
85.538094
84.970025
83.598500
80.407806
70.680166
71.519570
76.971949
76.971949
80.795605
82.504931
83.431671
84.189721
84.884412
85.565490
86.283398
87.066157
87.905427
88.626501
89.629531
89.159142
88.125622
87.191853
86.346567
85.573857
84.782574
83.921142
82.888648
81.028109
77.099943
77.099943
70.748974
71.514873
77.650751
81.306943
82.938533
83.763567
84.392672
85.021043
85.585648
86.194014
86.875034
87.683163
88.504041
89.658728
89.016733
87.986331
87.160894
86.430771
85.745560
85.015660
84.226975
83.257422
81.504109
77.720631
75.158401
77.059786
87.236648
87.236648
86.484784
88.468854
72.273772
89.082657
89.165145
89.100646
88.975303
89.110731
89.516460
89.675013
89.890618
87.032804
86.327336
88.824426
86.372227
71.249450
77.035767
74.756126
76.575314
85.494577
88.629892
89.401516
89.498096
89.480742
89.346117
89.431092
89.572430
89.646355
89.916519
89.225157
86.101783
70.840585
70.724402
78.568078
78.568078
82.983097
84.736704
86.051301
87.180295
88.232496
89.089292
89.912855
88.934649
87.721235
86.471716
85.063528
83.224890
78.712041
78.712041
70.922403
70.680496
78.428414
78.428414
82.776872
84.553722
85.959781
87.173696
88.271454
89.045656
89.824211
89.042162
87.749867
86.389624
84.867865
82.971810
78.505865
78.505865
70.027412
73.041484
83.426080
79.208719
78.742868
81.903098
73.166772
83.469277
84.917497
85.705034
86.365725
86.955151
87.577534
87.962528
88.955712
89.693761
88.667571
87.743727
86.770594
85.590621
84.075282
84.075282
81.129759
84.308362
78.686056
78.642792
84.305567
69.355254
72.278757
78.929516
82.725085
84.232657
85.098722
85.832983
86.601625
87.283112
87.991633
88.693935
89.769119
89.157528
88.327467
87.561786
86.725295
85.907068
84.960965
83.345671
79.442520
72.777603
71.779257
81.490206
86.269487
88.227749
89.616448
89.003576
88.149296
87.844436
86.902584
85.348879
80.985881
72.510075
71.925843
80.778190
80.778190
85.849902
88.042209
89.701492
88.771706
88.041744
87.756130
86.679513
85.040839
80.490860
80.490860
66.907192
67.035034
71.298996
74.478733
76.110126
78.254189
80.173545
81.813614
83.348798
84.931541
86.743859
88.584699
89.602413
87.437767
85.502241
83.762217
82.117386
80.387672
78.336056
76.124797
74.457369
71.273689
66.902825
67.081294
71.558048
74.783788
76.404512
78.359336
80.042913
81.582265
83.341479
85.233325
87.009156
88.699496
89.511582
87.624605
85.712620
83.768908
81.924539
80.288520
78.539649
76.495126
74.812286
71.528087
74.764998
74.769258
87.919206
88.964368
80.540215
85.607217
88.116703
89.714574
88.962905
87.655456
85.322908
81.580856
73.842113
80.057554
71.654331
74.812610
87.786418
88.620669
80.603164
85.539894
88.004463
89.682359
88.859798
87.531614
85.275670
80.501697
72.743913
77.662956
72.635484
72.707605
81.482852
81.482852
85.924868
87.617706
88.883632
89.898661
89.302466
88.493532
87.315287
85.686575
81.286527
81.286527
72.474247
72.705488
81.537004
81.537004
86.128388
87.798015
88.982159
89.936306
89.303999
88.571351
87.491473
85.939183
81.483498
81.483498
74.351587
82.493216
86.992740
89.048156
89.631546
88.842731
88.146872
86.485313
82.557549
74.580358
72.868399
83.313126
77.776160
83.277744
86.625489
88.705731
87.250873
85.651455
89.956274
71.602879
76.859151
78.035837
83.584020
85.992116
83.058509
81.586635
74.640166
74.532617
72.130237
82.535475
86.631068
88.208414
89.125138
89.804114
89.586149
88.942846
88.049182
86.437416
82.289485
74.328143
71.921353
87.822525
86.389743
82.786318
86.360435
71.741297
77.296914
87.937894
89.174263
89.939402
89.354720
88.730721
87.679785
87.679785
85.901419
82.855761
88.274325
88.274325
76.218312
76.750704
74.899739
81.528999
84.016274
86.536792
88.002047
88.792989
89.282094
89.923011
89.265113
88.350068
86.741703
86.741703
84.014835
73.191365
78.551528
72.248546
77.975789
71.503541
76.620899
84.605578
86.678849
88.090510
88.895243
89.407911
89.990040
89.288631
88.384708
86.834315
84.355376
84.173967
73.531306
74.199899
79.121449
84.806378
82.873754
85.878727
87.774508
88.903322
89.650277
89.705759
88.939748
87.816378
85.924760
82.935444
82.278964
73.584336
74.251703
82.067478
83.334893
86.196096
87.827269
88.790618
89.529610
89.728846
88.907307
87.889247
86.208653
83.300368
79.275683
74.259255
73.299940
72.323810
82.092367
86.278598
87.792026
88.838894
89.593541
89.732223
88.950728
87.914733
86.434438
82.277211
73.444191
72.401721
81.548221
81.548221
86.150751
87.672053
88.719024
89.453737
89.836225
88.944278
87.813475
86.197951
81.474516
81.474516
71.941693
78.010199
80.419622
73.923573
84.345838
86.275511
88.263792
89.887314
87.273215
84.728619
87.352698
85.667963
71.599801
76.032724
84.001874
85.820369
84.728463
86.782561
88.454980
89.970972
87.650443
85.094559
71.608233
77.911010
72.343822
72.059743
80.992534
80.992534
85.445634
87.163249
88.478434
89.584708
89.401648
88.853287
88.485579
87.662485
86.552542
85.025612
80.799932
80.799932
72.247461
72.124689
80.822119
80.822119
85.467528
87.151329
88.402619
89.516930
89.391905
88.722661
88.354049
87.595381
86.568880
85.090568
80.670781
80.670781
72.795168
79.697048
83.978130
85.946306
87.093426
88.048573
88.981999
89.912373
89.311572
88.591223
87.770425
86.912352
85.862146
83.958339
79.743679
72.797511
70.673063
87.418860
86.591192
79.413194
82.741959
85.051816
71.591190
77.339614
86.510115
87.941816
89.093448
89.983960
89.405365
88.676092
87.599130
86.690145
85.585092
82.606876
79.288731
72.280185
79.104222
73.572358
73.234354
82.623328
87.002618
88.607948
89.779106
89.270081
88.332473
86.867001
82.634456
73.622514
73.337530
82.564194
82.564194
87.092046
88.698651
89.721033
89.466704
88.512860
86.944276
82.434412
82.434412
74.006865
82.324228
86.172178
87.527555
88.356056
89.035605
89.591662
89.832196
89.111369
88.348210
87.461889
86.071027
82.238512
73.980050
71.141716
73.663246
80.131686
83.345292
84.732601
71.394489
77.045094
87.078292
88.424540
89.240184
89.890291
89.599505
89.071084
88.340485
86.733757
88.157630
84.820258
83.392185
85.563054
73.133191
72.322620
80.365706
84.758319
86.897156
88.253679
89.307645
89.737207
88.728787
87.562785
85.466709
81.061062
73.754860
72.456410
79.968997
79.968997
84.493496
86.684497
87.938658
88.560863
89.300506
89.342014
87.686491
85.059200
80.051399
80.051399
71.330683
73.169387
80.359053
80.359053
85.617132
87.883106
89.553273
89.001658
88.264117
87.832004
86.667231
84.845379
79.992532
79.992532
71.140129
73.208982
81.773820
86.477602
88.526376
89.943716
88.711310
88.026218
87.952769
87.154598
85.628663
81.459617
73.487149
73.615942
82.820752
82.820752
87.125560
88.368208
89.189649
89.725407
89.801203
89.236958
88.395840
87.131384
82.803314
82.803314
73.472419
73.608612
82.906947
82.906947
87.023510
88.238341
89.118750
89.733149
89.752126
89.140928
88.259885
87.043708
82.926841
82.926841
74.328159
74.845836
82.134325
82.134325
86.322378
88.141811
88.970943
89.302596
89.499861
89.782232
89.673547
88.686892
88.054640
88.022620
88.016345
87.990394
88.023925
87.997510
87.625069
86.263138
82.519669
82.519669
74.773369
75.244553
83.029653
86.979264
88.427779
88.922956
89.084478
89.322242
89.680870
89.874190
89.102829
88.508987
88.480156
88.316665
88.199365
88.118599
88.057643
87.707542
86.275720
82.426124
71.548785
71.060436
79.669493
84.577610
86.819909
88.397496
89.798111
88.780651
88.108888
87.935289
87.158649
85.992717
84.158186
79.635890
71.606458
71.275288
79.500405
79.500405
84.299004
86.346990
87.925097
89.443052
89.178524
88.468446
87.870395
86.771263
85.453452
83.647916
79.113262
79.113262
73.111277
72.268574
81.995483
86.401212
88.062301
89.232726
89.907825
89.051236
88.628660
88.599013
88.184711
87.295759
85.902559
81.774742
73.010029
72.359953
81.438663
81.438663
86.054019
87.654919
88.872239
89.895109
89.119946
88.568073
88.466718
87.828794
86.857101
85.522421
81.232203
81.232203
71.253875
73.329488
88.714320
87.376588
82.329382
85.387342
72.714879
86.726095
88.435413
89.219528
89.990643
88.902866
87.565876
85.522372
85.522372
82.326954
84.397995
82.948756
71.170609
73.219898
81.149084
85.498073
87.262242
88.425637
89.335254
89.800541
88.734232
87.516195
85.708361
81.312257
76.461482
76.575391
72.438529
77.474624
84.733250
86.737099
87.895721
88.506351
88.710440
88.710300
89.019615
89.753080
89.575301
88.737846
87.392969
85.163257
78.801875
76.610532
76.701260
82.178514
84.200027
85.034697
87.146404
88.321843
88.577563
88.599379
88.573036
88.929937
89.661857
89.842667
89.144048
87.676335
85.238144
80.821257
80.821257
74.634229
71.884536
82.466848
86.484398
88.207409
89.305920
89.851158
89.262817
88.746934
87.766247
86.245001
84.298659
80.296737
72.987139
71.851147
80.772655
80.772655
82.446669
85.952867
83.242301
78.347000
87.825580
89.466688
89.589232
89.160796
88.743615
87.599492
87.599492
85.696791
82.440498
80.897820
80.897820
74.236118
73.216174
82.393632
86.585933
88.322117
89.229680
89.358334
89.728711
89.656681
88.572980
86.640437
82.314396
74.306221
73.240060
85.220890
87.638934
88.709756
89.494027
89.972703
89.283443
88.043912
88.043912
85.778802
73.383652
72.097638
80.929299
85.195013
87.327255
88.798043
89.635270
89.616862
88.787485
87.306743
85.081724
80.746950
73.269360
72.222412
83.988377
86.865628
88.362179
89.555073
89.752789
88.374570
86.979208
84.119196
73.102546
71.631755
81.481719
85.845957
87.737844
88.794158
89.988309
88.438394
86.286852
81.662885
73.158554
83.876009
85.337976
71.298996
88.716124
89.992113
88.086744
71.273689
85.670072
84.125553
73.684677
74.251897
83.119596
83.119596
87.433556
88.863300
89.726491
89.628416
88.777030
87.343641
83.006762
83.006762
73.605520
74.137379
83.319302
87.319173
88.685411
89.714026
89.431816
88.524178
87.279180
83.403952
70.997116
70.959415
78.822497
78.822497
83.356878
85.189872
86.553876
87.738489
88.874931
89.919138
89.264957
88.418834
87.406975
86.321290
85.035158
83.257970
78.785188
78.785188
70.989657
70.972944
78.816358
78.816358
83.264230
85.075199
86.476481
87.774624
88.973453
89.963622
89.331755
88.538466
87.446041
86.233630
84.899523
83.159208
78.781846
78.781846