# vtk DataFile Version 3.0
Dislocation network (FCC crystal) exported from OpenDiS
ASCII
DATASET UNSTRUCTURED_GRID
POINTS 3948 FLOAT
0.00000000e+00 0.00000000e+00 0.00000000e+00
1.95620000e+04 0.00000000e+00 0.00000000e+00
0.00000000e+00 1.95620000e+04 0.00000000e+00
0.00000000e+00 0.00000000e+00 1.95620000e+04
1.95620000e+04 1.95620000e+04 0.00000000e+00
1.95620000e+04 0.00000000e+00 1.95620000e+04
0.00000000e+00 1.95620000e+04 1.95620000e+04
1.95620000e+04 1.95620000e+04 1.95620000e+04
2.20595102e+03 6.17431505e+03 1.26152420e+04
2.26488480e+03 6.15930383e+03 1.26591645e+04
2.20595102e+03 6.17431505e+03 1.26152420e+04
2.26449721e+03 6.18926273e+03 1.25716435e+04
2.26488480e+03 6.15930383e+03 1.26591645e+04
2.35206897e+03 6.12442366e+03 1.27114685e+04
2.43925315e+03 6.08954349e+03 1.27637726e+04
2.35206897e+03 6.12442366e+03 1.27114685e+04
2.43925315e+03 6.08954349e+03 1.27637726e+04
2.57016116e+03 6.02967157e+03 1.28348087e+04
2.57016116e+03 6.02967157e+03 1.28348087e+04
2.69449423e+03 5.97021302e+03 1.28996832e+04
2.69449423e+03 5.97021302e+03 1.28996832e+04
2.81704250e+03 6.03138479e+03 1.28383067e+04
2.81704250e+03 6.03138479e+03 1.28383067e+04
2.95053962e+03 6.09380009e+03 1.27672249e+04
2.95053962e+03 6.09380009e+03 1.27672249e+04
3.03699519e+03 6.12859970e+03 1.27155689e+04
3.12345076e+03 6.16339931e+03 1.26639129e+04
3.03699519e+03 6.12859970e+03 1.27155689e+04
3.12345076e+03 6.16339931e+03 1.26639129e+04
3.18303743e+03 6.17855862e+03 1.26194856e+04
3.18303743e+03 6.17855862e+03 1.26194856e+04
3.12392379e+03 6.19353627e+03 1.25753496e+04
3.12392379e+03 6.19353627e+03 1.25753496e+04
3.03540886e+03 6.22991284e+03 1.25232112e+04
2.94689392e+03 6.26628941e+03 1.24710728e+04
3.03540886e+03 6.22991284e+03 1.25232112e+04
2.94689392e+03 6.26628941e+03 1.24710728e+04
2.81743523e+03 6.32564386e+03 1.24009686e+04
2.81743523e+03 6.32564386e+03 1.24009686e+04
2.69449423e+03 6.38499042e+03 1.23373742e+04
2.69449423e+03 6.38499042e+03 1.23373742e+04
2.57185907e+03 6.32396312e+03 1.23989820e+04
2.57185907e+03 6.32396312e+03 1.23989820e+04
2.44097354e+03 6.26274919e+03 1.24686536e+04
2.44097354e+03 6.26274919e+03 1.24686536e+04
2.35273537e+03 6.22600596e+03 1.25201486e+04
2.26449721e+03 6.18926273e+03 1.25716435e+04
2.35273537e+03 6.22600596e+03 1.25201486e+04
1.68050128e+04 1.68610948e+04 1.31309321e+04
1.67391208e+04 1.68488701e+04 1.30772647e+04
1.68050128e+04 1.68610948e+04 1.31309321e+04
1.67263307e+04 1.68773240e+04 1.31933850e+04
1.67391208e+04 1.68488701e+04 1.30772647e+04
1.66008186e+04 1.68068223e+04 1.29810104e+04
1.66008186e+04 1.68068223e+04 1.29810104e+04
1.64744763e+04 1.67605742e+04 1.29009161e+04
1.64744763e+04 1.67605742e+04 1.29009161e+04
1.63537760e+04 1.67133597e+04 1.28274303e+04
1.63537760e+04 1.67133597e+04 1.28274303e+04
1.62307391e+04 1.66634000e+04 1.27543532e+04
1.62307391e+04 1.66634000e+04 1.27543532e+04
1.61112176e+04 1.66132325e+04 1.26849991e+04
1.61112176e+04 1.66132325e+04 1.26849991e+04
1.59969681e+04 1.65637101e+04 1.26202721e+04
1.59969681e+04 1.65637101e+04 1.26202721e+04
1.58830675e+04 1.65128369e+04 1.25572446e+04
1.58830675e+04 1.65128369e+04 1.25572446e+04
1.57671785e+04 1.64595083e+04 1.24946842e+04
1.57671785e+04 1.64595083e+04 1.24946842e+04
1.56508926e+04 1.64043605e+04 1.24335461e+04
1.56508926e+04 1.64043605e+04 1.24335461e+04
1.55336911e+04 1.63469919e+04 1.23737133e+04
1.55336911e+04 1.63469919e+04 1.23737133e+04
1.54204365e+04 1.62894640e+04 1.23179866e+04
1.54204365e+04 1.62894640e+04 1.23179866e+04
1.53015304e+04 1.63463305e+04 1.23800262e+04
1.53015304e+04 1.63463305e+04 1.23800262e+04
1.51861573e+04 1.64005267e+04 1.24412031e+04
1.51861573e+04 1.64005267e+04 1.24412031e+04
1.50707855e+04 1.64535132e+04 1.25035885e+04
1.50707855e+04 1.64535132e+04 1.25035885e+04
1.49557402e+04 1.65051655e+04 1.25669815e+04
1.49557402e+04 1.65051655e+04 1.25669815e+04
1.48425172e+04 1.65548429e+04 1.26305270e+04
1.48425172e+04 1.65548429e+04 1.26305270e+04
1.47284455e+04 1.66037154e+04 1.26957263e+04
1.47284455e+04 1.66037154e+04 1.26957263e+04
1.46095629e+04 1.66533396e+04 1.27649847e+04
1.46095629e+04 1.66533396e+04 1.27649847e+04
1.44874604e+04 1.67029695e+04 1.28374572e+04
1.44874604e+04 1.67029695e+04 1.28374572e+04
1.43670317e+04 1.67503924e+04 1.29104630e+04
1.43670317e+04 1.67503924e+04 1.29104630e+04
1.42443701e+04 1.67957292e+04 1.29877879e+04
1.42443701e+04 1.67957292e+04 1.29877879e+04
1.41563255e+04 1.68248349e+04 1.30467268e+04
1.40945189e+04 1.68452669e+04 1.30881014e+04
1.41563255e+04 1.68248349e+04 1.30467268e+04
1.40945189e+04 1.68452669e+04 1.30881014e+04
1.40358603e+04 1.68547450e+04 1.31372819e+04
1.40358603e+04 1.68547450e+04 1.31372819e+04
1.41115398e+04 1.68694371e+04 1.31982694e+04
1.41115398e+04 1.68694371e+04 1.31982694e+04
1.42604598e+04 1.69205429e+04 1.32960835e+04
1.42604598e+04 1.69205429e+04 1.32960835e+04
1.43790185e+04 1.69655677e+04 1.33696175e+04
1.43790185e+04 1.69655677e+04 1.33696175e+04
1.44978673e+04 1.70136173e+04 1.34404166e+04
1.44978673e+04 1.70136173e+04 1.34404166e+04
1.46187980e+04 1.70641625e+04 1.35108021e+04
1.46187980e+04 1.70641625e+04 1.35108021e+04
1.47362842e+04 1.71144781e+04 1.35779728e+04
1.47362842e+04 1.71144781e+04 1.35779728e+04
1.48486919e+04 1.71636876e+04 1.36411710e+04
1.48486919e+04 1.71636876e+04 1.36411710e+04
1.49610582e+04 1.72138400e+04 1.37033849e+04
1.49610582e+04 1.72138400e+04 1.37033849e+04
1.50754167e+04 1.72659699e+04 1.37656134e+04
1.50754167e+04 1.72659699e+04 1.37656134e+04
1.51903208e+04 1.73195760e+04 1.38269114e+04
1.51903208e+04 1.73195760e+04 1.38269114e+04
1.53051982e+04 1.73746754e+04 1.38866895e+04
1.53051982e+04 1.73746754e+04 1.38866895e+04
1.54204365e+04 1.74317178e+04 1.39448854e+04
1.54204365e+04 1.74317178e+04 1.39448854e+04
1.55356341e+04 1.73753061e+04 1.38860995e+04
1.55356341e+04 1.73753061e+04 1.38860995e+04
1.56501053e+04 1.73208503e+04 1.38260842e+04
1.56501053e+04 1.73208503e+04 1.38260842e+04
1.57649877e+04 1.72676832e+04 1.37643689e+04
1.57649877e+04 1.72676832e+04 1.37643689e+04
1.58792127e+04 1.72160280e+04 1.37017991e+04
1.58792127e+04 1.72160280e+04 1.37017991e+04
1.59913872e+04 1.71663777e+04 1.36392749e+04
1.59913872e+04 1.71663777e+04 1.36392749e+04
1.61039573e+04 1.71175662e+04 1.35755162e+04
1.61039573e+04 1.71175662e+04 1.35755162e+04
1.62215598e+04 1.70677292e+04 1.35077507e+04
1.62215598e+04 1.70677292e+04 1.35077507e+04
1.63425534e+04 1.70177734e+04 1.34367130e+04
1.63425534e+04 1.70177734e+04 1.34367130e+04
1.64614275e+04 1.69703970e+04 1.33652152e+04
1.64614275e+04 1.69703970e+04 1.33652152e+04
1.65808732e+04 1.69259112e+04 1.32902553e+04
1.65808732e+04 1.69259112e+04 1.32902553e+04
1.67263307e+04 1.68773240e+04 1.31933850e+04
9.78481954e+03 1.58658571e+04 3.67150003e+03
9.72903891e+03 1.57932969e+04 3.68827952e+03
9.78481954e+03 1.58658571e+04 3.67150003e+03
9.84204752e+03 1.57914237e+04 3.65429462e+03
9.72903891e+03 1.57932969e+04 3.68827952e+03
9.62882013e+03 1.56476318e+04 3.73372594e+03
9.62882013e+03 1.56476318e+04 3.73372594e+03
9.55139674e+03 1.55242002e+04 3.77973413e+03
9.55139674e+03 1.55242002e+04 3.77973413e+03
9.48014888e+03 1.54064324e+04 3.82625402e+03
9.48014888e+03 1.54064324e+04 3.82625402e+03
9.40902422e+03 1.52863121e+04 3.87524972e+03
9.40902422e+03 1.52863121e+04 3.87524972e+03
9.33992125e+03 1.51675497e+04 3.92490911e+03
9.33992125e+03 1.51675497e+04 3.92490911e+03
9.27377056e+03 1.50518208e+04 3.97448728e+03
9.27377056e+03 1.50518208e+04 3.97448728e+03
9.20963888e+03 1.49376643e+04 4.02451209e+03
9.20963888e+03 1.49376643e+04 4.02451209e+03
9.14584083e+03 1.48221238e+04 4.07625457e+03
9.14584083e+03 1.48221238e+04 4.07625457e+03
9.08290651e+03 1.47059828e+04 4.12946124e+03
9.08290651e+03 1.47059828e+04 4.12946124e+03
9.02153455e+03 1.45903000e+04 4.18377208e+03
9.02153455e+03 1.45903000e+04 4.18377208e+03
8.95986183e+03 1.44717355e+04 4.24066393e+03
8.95986183e+03 1.44717355e+04 4.24066393e+03
9.01665470e+03 1.43566290e+04 4.18235036e+03
9.01665470e+03 1.43566290e+04 4.18235036e+03
9.07629436e+03 1.42399728e+04 4.12533379e+03
9.07629436e+03 1.42399728e+04 4.12533379e+03
9.13759320e+03 1.41233397e+04 4.06999959e+03
9.13759320e+03 1.41233397e+04 4.06999959e+03
9.20010221e+03 1.40071453e+04 4.01631417e+03
9.20010221e+03 1.40071453e+04 4.01631417e+03
9.26310742e+03 1.38924649e+04 3.96463894e+03
9.26310742e+03 1.38924649e+04 3.96463894e+03
9.32786365e+03 1.37769147e+04 3.91384503e+03
9.32786365e+03 1.37769147e+04 3.91384503e+03
9.39596133e+03 1.36578790e+04 3.86290700e+03
9.39596133e+03 1.36578790e+04 3.86290700e+03
9.46644500e+03 1.35372047e+04 3.81271630e+03
9.46644500e+03 1.35372047e+04 3.81271630e+03
9.53736127e+03 1.34187288e+04 3.76515666e+03
9.53736127e+03 1.34187288e+04 3.76515666e+03
9.61415085e+03 1.32954296e+04 3.71864713e+03
9.61415085e+03 1.32954296e+04 3.71864713e+03
9.71354239e+03 1.31502752e+04 3.67288425e+03
9.71354239e+03 1.31502752e+04 3.67288425e+03
9.76925230e+03 1.30776139e+04 3.65593280e+03
9.76925230e+03 1.30776139e+04 3.65593280e+03
9.82793218e+03 1.31539246e+04 3.63830195e+03
9.82793218e+03 1.31539246e+04 3.63830195e+03
9.92714691e+03 1.32989969e+04 3.59244434e+03
9.92714691e+03 1.32989969e+04 3.59244434e+03
1.00033091e+04 1.34207712e+04 3.54683226e+03
1.00033091e+04 1.34207712e+04 3.54683226e+03
1.00740730e+04 1.35380182e+04 3.50034914e+03
1.00740730e+04 1.35380182e+04 3.50034914e+03
1.01449067e+04 1.36578326e+04 3.45136851e+03
1.01449067e+04 1.36578326e+04 3.45136851e+03
1.02139763e+04 1.37765645e+04 3.40170614e+03
1.02139763e+04 1.37765645e+04 3.40170614e+03
1.02798480e+04 1.38917470e+04 3.35239534e+03
1.02798480e+04 1.38917470e+04 3.35239534e+03
1.03440809e+04 1.40058991e+04 3.30247615e+03
1.03440809e+04 1.40058991e+04 3.30247615e+03
1.04078656e+04 1.41211722e+04 3.25098770e+03
1.04078656e+04 1.41211722e+04 3.25098770e+03
1.04706783e+04 1.42367807e+04 3.19819188e+03
1.04706783e+04 1.42367807e+04 3.19819188e+03
1.05324738e+04 1.43529427e+04 3.14382548e+03
1.05324738e+04 1.43529427e+04 3.14382548e+03
[...]
CELL_DATA 1971
SCALARS SlipSystemID int 1
LOOKUP_TABLE default
0
10
7
10
10
10
10
7
7
7
7
7
10
10
10
10
10
7
7
7
7
4
1
4
4
4
4
4
4
4
4
4
4
4
1
1
1
1
1
1
1
1
1
1
1
1
1
4
4
4
4
4
4
4
4
4
4
4
4
1
1
1
1
1
1
1
1
1
1
1
5
11
5
5
5
5
5
5
5
5
5
5
5
11
11
11
11
11
11
11
11
11
11
11
11
5
5
5
5
5
5
5
5
5
5
5
5
11
11
11
11
11
11
11
11
11
11
11
2
8
2
2
2
2
2
2
8
8
8
8
8
8
8
2
2
2
2
2
2
2
8
8
8
8
8
8
6
9
6
6
6
6
6
6
6
9
9
9
9
9
9
9
9
6
6
6
6
6
6
6
6
9
9
9
9
9
9
9
3
12
3
3
3
3
3
3
3
3
3
12
12
12
12
12
12
12
12
12
12
12
3
3
3
3
3
3
3
3
3
3
12
12
12
12
12
12
12
12
12
10
7
10
10
10
10
10
7
7
7
7
7
7
10
10
10
10
10
10
7
7
7
7
7
4
1
4
4
4
4
4
4
4
4
4
1
1
1
1
1
1
1
1
1
1
4
4
4
4
4
4
4
4
4
4
1
1
1
1
1
1
1
1
1
5
11
5
5
5
5
11
11
11
11
11
5
5
5
5
5
11
11
11
11
2
8
2
2
2
2
2
8
8
8
8
8
8
2
2
2
2
2
2
8
8
8
8
8
6
9
6
6
6
6
9
9
9
9
9
6
6
6
6
6
6
9
9
9
9
9
3
12
3
3
3
3
3
12
12
12
12
12
12
3
3
3
3
3
3
12
12
12
12
12
10
7
10
10
10
10
10
10
7
7
7
7
7
7
7
10
10
10
10
10
10
10
7
7
7
7
7
7
4
1
4
4
4
4
4
4
1
1
1
1
1
1
1
4
4
4
4
4
4
4
1
1
1
1
1
1
5
11
5
5
5
5
5
11
11
11
11
11
11
5
5
5
5
5
5
11
11
11
11
11
2
8
2
2
2
2
8
8
8
8
2
2
2
2
8
8
8
6
9
6
6
6
6
6
6
9
9
9
9
9
9
9
6
6
6
6
6
6
6
9
9
9
9
9
9
3
12
3
3
3
3
3
3
3
12
12
12
12
12
12
12
12
3
3
3
3
3
3
3
3
12
12
12
12
12
12
12
10
7
10
10
10
10
7
7
7
7
7
10
10
10
10
10
7
7
7
7
4
1
4
4
4
4
4
4
1
1
1
1
1
1
1
4
4
4
4
4
4
4
4
1
1
1
1
1
1
1
5
11
5
5
5
5
5
11
11
11
11
11
11
5
5
5
5
5
5
11
11
11
11
11
2
8
2
2
2
2
2
8
8
8
8
8
8
2
2
2
2
2
2
8
8
8
8
8
6
9
6
6
6
6
6
9
9
9
9
9
9
6
6
6
6
6
6
9
9
9
9
9
3
12
3
3
3
3
3
3
3
3
3
12
12
12
12
12
12
12
12
12
12
3
3
3
3
3
3
3
3
3
3
12
12
12
12
12
12
12
12
12
10
7
10
10
10
10
10
10
7
7
7
7
7
7
7
10
10
10
10
10
10
10
7
7
7
7
7
7
4
1
4
4
4
4
4
4
1
1
1
1
1
1
1
4
4
4
4
4
4
4
1
1
1
1
1
1
5
11
5
5
5
5
5
11
11
11
11
11
11
5
5
5
5
5
5
11
11
11
11
11
2
8
2
2
2
2
2
2
2
8
8
8
8
8
8
8
8
2
2
2
2
2
2
2
2
8
8
8
8
8
8
8
6
9
6
6
6
6
6
9
9
9
9
9
9
6
6
6
6
6
6
9
9
9
9
9
3
12
3
3
3
3
3
12
12
12
12
12
12
3
3
3
3
3
3
12
12
12
12
12
10
7
10
10
10
10
10
7
7
7
7
7
7
10
10
10
10
10
10
7
7
7
7
7
4
1
4
4
4
4
1
1
1
1
1
4
4
4
4
4
4
1
1
1
1
1
5
11
5
5
5
5
11
11
11
11
11
5
5
5
5
5
11
11
11
11
2
8
2
2
2
2
2
2
2
8
8
8
8
8
8
8
8
2
2
2
2
2
2
2
2
8
8
8
8
8
8
8
6
9
6
6
6
6
9
9
9
9
9
6
6
6
6
6
9
9
9
9
3
12
3
3
3
3
3
12
12
12
12
12
12
3
3
3
3
3
3
12
12
12
12
12
10
7
10
10
10
10
10
10
7
7
7
7
7
7
7
10
10
10
10
10
10
10
7
7
7
7
7
7
4
1
4
4
4
4
4
4
1
1
1
1
1
1
1
4
4
4
4
4
4
4
1
1
1
1
1
1
5
11
5
5
5
5
5
5
5
11
11
11
11
11
11
11
11
5
5
5
5
5
5
5
5
11
11
11
11
11
11
11
2
8
2
2
2
2
2
8
8
8
8
8
8
2
2
2
2
2
2
8
8
8
8
8
6
9
6
6
6
6
6
9
9
9
9
9
9
6
6
6
6
6
6
9
9
9
9
9
3
12
3
3
3
3
3
12
12
12
12
12
12
3
3
3
3
3
3
12
12
12
12
12
10
7
10
10
10
10
10
10
7
7
7
7
7
7
7
10
10
10
10
10
10
10
7
7
7
7
7
7
4
1
4
4
4
4
4
1
1
1
1
1
1
4
4
4
4
4
4
4
1
1
1
1
1
1
5
11
5
5
5
5
5
5
5
11
11
11
11
11
11
11
11
5
5
5
5
5
5
5
5
11
11
11
11
11
11
11
2
8
2
2
2
2
2
8
8
8
8
8
8
2
2
2
2
2
2
8
8
8
8
8
6
9
6
6
6
6
9
9
9
9
9
6
6
6
6
6
9
9
9
9
3
12
3
3
3
3
3
12
12
12
12
12
12
3
3
3
3
3
3
12
12
12
12
12
10
7
10
10
10
10
10
7
7
7
7
7
7
10
10
10
10
10
10
7
7
7
7
7
4
1
4
4
4
4
1
1
1
1
1
4
4
4
4
4
1
1
1
1
5
11
5
5
5
5
5
11
11
11
11
11
11
5
5
5
5
5
5
11
11
11
11
11
11
2
8
2
2
2
2
2
2
8
8
8
8
8
8
2
2
2
2
2
2
8
8
8
8
8
6
9
6
6
6
6
6
6
9
9
9
9
9
9
9
6
6
6
6
6
6
6
9
9
9
9
9
9
3
12
3
3
3
3
3
12
12
12
12
12
12
3
3
3
3
3
3
12
12
12
12
12
10
7
10
10
10
10
7
7
7
7
7
10
10
10
10
10
7
7
7
7
4
1
4
4
4
4
4
1
1
1
1
1
1
4
4
4
4
4
4
1
1
1
1
1
5
11
5
5
5
5
5
11
11
11
11
11
11
5
5
5
5
5
11
11
11
11
2
8
2
2
2
2
8
8
8
8
8
2
2
2
2
2
8
8
8
8
11
11
6
9
6
6
6
6
9
9
9
9
9
6
6
6
6
6
9
9
9
9
3
12
3
3
3
3
3
12
12
12
12
12
12
3
3
3
3
3
3
12
12
12
12
12
10
7
10
10
10
10
10
10
7
7
7
7
7
7
7
10
10
10
10
10
10
10
7
7
7
7
7
7
4
1
4
4
4
4
1
1
1
1
1
4
4
4
4
4
1
1
1
1
5
11
5
5
5
5
5
5
11
11
11
11
11
11
11
5
5
5
5
5
5
5
11
11
11
11
11
11
2
8
2
2
2
2
2
2
2
2
8
8
8
8
8
8
8
8
8
2
2
2
2
2
2
2
2
2
8
8
8
8
8
8
8
8
6
9
6
6
6
6
9
9
9
9
9
6
6
6
6
6
9
9
9
9
3
12
3
3
3
3
3
12
12
12
12
12
12
3
3
3
3
3
3
12
12
12
12
12
10
7
10
10
10
10
10
10
10
7
7
7
7
7
7
7
7
10
10
10
10
10
10
10
10
7
7
7
7
7
7
7
4
1
4
4
4
4
4
4
4
4
1
1
1
1
1
1
1
1
1
4
4
4
4
4
4
4
4
4
1
1
1
1
1
1
1
1
5
11
5
5
5
5
5
5
11
11
11
11
11
11
11
5
5
5
5
5
5
5
11
11
11
11
2
8
2
2
2
2
8
8
8
8
8
2
2
2
2
2
8
8
8
8
6
9
6
6
6
6
9
9
9
9
9
6
6
6
6
6
9
9
9
9
3
12
3
3
3
3
12
12
12
12
12
3
3
3
3
3
12
12
12
12
10
7
10
10
10
10
10
10
10
7
7
7
7
7
7
7
7
10
10
10
10
10
10
10
10
7
7
7
7
7
7
7
4
1
4
4
4
4
1
1
1
1
1
4
4
4
4
4
1
1
1
1
5
11
5
5
5
5
11
11
11
11
11
5
5
5
5
5
11
11
11
11
8
1
5
SCALARS DislocationType int 1
LOOKUP_TABLE default
0
2
2
3
3
3
3
3
3
3
3
2
2
3
3
3
3
3
3
3
3
2
2
3
3
3
3
3
3
3
3
3
3
3
3
3
3
3
3
3
3
3
3
3
3
3
2
2
3
3
3
3
3
3
3
3
3
3
3
3
3
3
3
3
3
3
3
3
3
3
2
2
3
3
3
3
3
3
3
3
3
3
3
3
3
3
3
3
3
3
3
3
3
3
2
2
3
3
3
3
3
3
3
3
3
3
3
3
3
3
3
3
3
3
3
3
3
3
3
3
3
3
3
3
3
3
3
3
3
3
3
3
3
3
3
3
3
3
3
3
3
3
3
3
3
3
2
2
3
3
3
3
3
3
3
3
3
3
3
3
3
3
2
2
3
3
3
3
3
3
3
3
3
3
3
3
3
3
2
2
3
3
3
3
3
3
3
3
3
3
3
3
3
3
3
3
3
3
3
2
2
3
3
3
3
3
3
3
3
3
3
3
3
3
3
3
3
3
3
2
2
3
3
3
3
3
3
3
3
3
3
2
2
3
3
3
3
3
3
3
3
3
3
2
2
3
3
3
3
3
3
3
3
3
3
3
3
3
3
3
3
3
3
2
2
3
3
3
3
3
3
3
3
3
3
3
3
3
3
3
3
3
3
2
2
3
3
3
3
3
3
3
3
2
2
3
3
3
3
3
3
3
3
2
2
3
3
3
3
3
3
3
3
3
3
2
2
3
3
3
3
3
3
3
3
3
3
2
2
3
3
3
3
3
3
3
3
2
2
3
3
3
3
3
3
3
3
3
3
2
2
3
3
3
3
3
3
3
3
3
3
2
2
3
3
3
3
3
3
3
3
3
3
2
2
3
3
3
3
3
3
3
3
3
3
3
3
3
3
3
3
3
3
3
3
3
3
3
3
3
3
2
2
3
3
3
3
3
3
3
3
3
3
3
3
2
2
3
3
3
3
3
3
3
3
3
3
3
3
2
2
3
3
3
3
3
3
3
3
3
3
2
2
3
3
3
3
3
3
3
3
3
3
2
2
3
3
3
3
3
3
3
2
2
3
3
3
3
3
3
2
2
3
3
3
3
3
3
3
3
3
3
3
3
2
2
3
3
3
3
3
3
3
3
3
3
3
3
2
2
3
3
3
3
3
3
3
3
3
3
3
3
3
3
2
2
3
3
3
3
3
3
3
3
3
3
3
3
3
3
2
2
3
3
3
3
3
3
3
3
2
2
3
3
3
3
3
3
3
3
2
2
3
3
3
3
3
3
3
3
3
3
3
3
2
2
3
3
3
3
3
3
3
3
3
3
3
3
3
3
2
2
3
3
3
3
3
3
3
3
3
3
2
2
3
3
3
3
3
3
3
3
3
3
2
2
3
3
3
3
3
3
3
3
3
3
2
2
3
3
3
3
3
3
3
3
3
3
2
3
3
3
3
3
3
3
3
3
3
3
2
3
3
3
3
3
3
3
3
3
3
3
2
2
3
3
3
3
3
3
3
3
3
3
3
3
3
3
3
3
3
3
2
2
3
3
3
3
3
3
3
3
3
3
3
3
3
3
3
3
3
3
2
2
3
3
3
3
3
3
3
3
3
3
3
3
2
2
3
3
3
3
3
3
3
3
3
3
3
3
2
2
3
3
3
3
3
3
3
3
3
3
3
3
2
2
3
3
3
3
3
3
3
3
3
3
3
3
2
2
3
3
3
3
3
3
3
3
3
3
2
2
3
3
3
3
3
3
3
3
3
3
3
3
3
3
3
3
3
3
3
3
3
3
3
3
3
3
3
3
3
3
3
3
3
3
3
3
3
3
3
3
3
3
3
2
3
3
3
3
3
3
3
3
3
3
3
2
3
3
3
3
3
3
3
3
3
3
3
3
3
3
3
3
3
3
3
3
3
3
3
3
3
3
3
3
3
3
3
3
3
3
2
2
3
3
3
3
3
3
3
3
3
3
2
2
3
3
3
3
3
3
3
3
3
3
2
2
3
3
3
3
3
3
3
3
2
2
3
3
3
3
3
3
3
3
3
3
3
3
3
3
3
3
3
3
3
3
3
3
3
3
3
3
3
3
3
3
2
2
3
3
3
3
3
3
3
3
3
3
3
3
3
3
2
2
3
3
3
3
3
3
3
3
3
3
3
3
3
3
3
3
3
3
3
3
3
3
3
3
3
3
3
3
3
3
3
3
3
3
2
2
3
3
3
3
3
3
3
3
3
3
2
2
3
3
3
3
3
3
3
3
3
3
3
3
3
3
3
3
3
3
3
3
3
3
3
3
3
3
3
3
3
3
3
3
3
3
3
3
3
3
2
2
3
3
3
3
3
3
3
3
3
3
3
3
2
2
3
3
3
3
3
3
3
3
3
3
3
3
3
3
3
3
3
3
3
3
3
3
3
3
3
3
3
3
3
2
3
3
3
3
3
3
3
3
3
3
3
3
3
3
3
2
3
3
3
3
3
3
3
3
3
3
3
2
3
3
3
3
3
3
3
3
3
3
2
2
3
3
3
3
3
3
3
3
3
3
2
2
3
3
3
3
3
3
3
3
3
3
2
2
3
3
3
3
3
3
3
3
3
3
2
2
3
3
3
3
3
3
3
3
3
3
2
2
3
3
3
3
3
3
3
3
3
3
3
3
2
2
3
3
3
3
3
3
3
3
3
3
3
3
2
2
3
3
3
3
3
3
3
3
3
3
2
2
3
3
3
3
3
3
3
3
3
3
3
3
2
2
3
3
3
3
3
3
3
3
3
3
3
3
3
3
2
2
3
3
3
3
3
3
3
3
3
3
3
3
3
3
2
2
3
3
3
3
3
3
3
3
3
3
2
2
3
3
3
3
3
3
3
3
3
3
3
3
3
3
3
3
3
3
3
3
3
3
3
3
3
3
3
3
3
3
2
2
3
3
3
3
3
3
3
3
3
3
2
2
3
3
3
3
3
3
3
3
3
3
2
2
3
3
3
3
3
3
3
3
3
3
2
2
3
3
3
3
3
3
3
3
3
3
3
3
3
3
3
3
3
3
3
3
3
3
3
3
3
3
3
3
3
3
2
2
3
3
3
3
3
3
3
3
3
3
3
2
3
3
3
3
3
3
3
3
3
3
3
2
2
3
3
3
3
3
3
3
3
3
3
3
2
2
3
3
3
3
3
3
3
3
3
3
2
2
3
3
3
3
3
3
3
3
3
3
3
3
2
2
3
3
3
3
3
3
3
3
3
3
3
3
2
2
3
3
3
3
3
3
3
3
3
3
2
2
3
3
3
3
3
3
3
3
3
3
3
3
3
3
3
3
3
3
3
3
3
3
3
3
3
3
3
3
3
3
3
3
3
3
3
3
3
3
3
3
3
3
3
3
3
3
3
3
3
3
3
3
3
3
2
2
3
3
3
3
3
3
3
3
3
3
2
2
3
3
3
3
3
3
3
3
3
3
3
3
3
3
3
3
3
3
3
3
3
3
3
3
3
3
3
3
3
3
3
2
3
3
3
3
3
3
3
3
3
2
3
3
3
3
3
3
3
3
2
2
3
3
3
3
3
3
3
3
3
3
2
2
3
3
3
3
3
3
3
3
3
3
2
2
3
3
3
3
3
3
3
3
3
3
3
3
2
2
3
3
3
3
3
3
3
3
3
3
3
3
2
3
3
3
3
3
3
3
3
3
2
3
3
3
3
3
3
3
3
3
2
2
3
3
3
3
3
3
3
3
3
3
3
3
2
2
3
3
3
3
3
3
3
3
3
3
3
3
2
2
3
3
3
3
3
3
3
3
3
3
3
3
3
3
3
3
3
2
3
3
3
3
3
3
3
3
3
3
3
3
3
3
3
3
3
3
3
3
3
3
3
3
3
3
3
3
3
3
3
3
3
3
3
3
2
2
3
3
3
3
3
3
3
3
3
3
2
2
3
3
3
3
3
3
3
3
3
3
2
2
3
3
3
3
3
3
3
3
3
3
3
3
3
3
2
2
3
3
3
3
3
3
3
3
3
3
3
3
3
3
2
2
3
3
3
3
3
3
3
3
3
3
3
3
3
3
3
3
2
2
3
3
3
3
3
3
3
3
3
3
3
3
3
3
3
3
3
3
3
3
3
3
3
3
3
3
3
3
3
3
3
2
3
3
3
3
3
3
3
3
3
3
3
2
3
3
3
3
3
3
3
3
3
2
3
3
3
3
3
3
3
3
2
2
3
3
3
3
3
3
3
3
2
2
3
3
3
3
3
3
3
3
3
2
3
3
3
3
3
3
3
3
3
2
3
3
3
3
3
3
3
3
3
3
3
3
3
3
3
3
3
3
3
3
3
3
3
3
3
3
3
3
3
3
3
3
3
3
3
3
3
3
3
3
3
2
3
3
3
3
3
3
3
3
3
2
3
3
3
3
3
3
3
3
3
3
3
3
3
3
3
3
3
3
3
3
3
3
3
3
3
3
3
3
3
3
3
SCALARS CharacterAngle float 1
LOOKUP_TABLE default
0.0
74.186148
74.222965
83.418093
83.418093
87.181147
88.559348
89.944736
87.853499
83.577440
83.577440
74.167426
74.103935
84.130136
84.130136
87.255275
88.857178
89.843403
87.863416
84.486790
84.486790
70.042834
71.264168
77.249390
81.207851
82.837478
83.808885
84.704866
85.606310
86.474515
87.366719
88.296436
89.304525
89.473904
88.561140
87.999324
87.307096
86.628017
85.954979
85.276121
84.553137
83.835412
83.007734
81.437678
78.931003
78.931003
68.655810
70.547719
79.735843
82.096044
83.693617
84.588942
85.265056
85.890420
86.453725
87.081366
87.786695
88.652970
89.668887
89.318254
88.393856
87.540089
86.842307
86.209107
85.616200
84.969978
84.255509
83.318050
81.620651
79.151094
72.759508
72.753608
77.751568
81.640536
83.087897
83.928770
84.600285
85.273691
85.919089
86.552610
87.231488
87.981691
88.666372
89.562981
89.256220
88.308787
87.489593
86.735390
86.009327
85.242340
84.454594
83.506523
81.930001
77.958843
72.882966
72.746879
78.011461
81.758430
83.181863
83.988708
84.608941
85.254699
85.859299
86.475828
87.136197
87.885344
88.589998
89.537337
89.243764
88.285560
87.476263
86.733771
86.011470
85.257134
84.476969
83.542387
81.990119
78.031586
77.549748
77.776981
85.174254
88.215662
88.844143
88.962396
88.922585
88.787031
89.028962
89.572986
89.789078
89.722926
88.658436
84.979245
77.030651
77.325425
84.864336
88.266891
89.156401
89.392523
89.348556
89.244487
89.359627
89.553849
89.679669
89.903429
88.910336
85.471188
72.663275
72.528584
79.456265
83.609606
85.337002
86.507146
87.411229
88.247101
89.018922
89.866809
89.035171
88.033349
87.004296
85.736882
83.915981
79.621865
72.722196
72.530250
79.385098
83.422966
85.204459
86.446945
87.400170
88.277644
88.979437
89.775829
89.129620
88.055318
86.948591
85.581063
83.678417
79.469961
73.613762
73.338427
78.580166
82.878924
84.445249
85.245146
85.839702
86.472784
87.075279
87.674420
87.948231
88.856799
89.833826
88.855700
87.984516
87.050275
86.073849
84.822197
82.712635
79.501804
79.501804
68.592512
70.754340
80.009902
82.549621
84.086407
84.980805
85.732678
86.502198
87.223189
87.982808
88.734088
89.774902
89.143679
88.282066
87.513629
86.719787
85.946206
85.044849
83.506396
79.566738
73.756310
73.114957
81.142680
85.934643
88.064388
89.579412
88.950070
88.009076
87.632357
86.611373
84.878667
80.602095
73.546090
73.148863
80.788047
85.617570
87.915034
89.632876
88.735964
87.877788
87.531741
86.410264
84.663518
80.462341
72.501811
72.508612
77.747383
81.631665
83.401921
84.661852
85.545093
86.283697
87.090504
88.056002
88.971566
89.934501
88.689990
87.607633
86.665825
85.832899
84.868857
83.504454
81.654728
77.723686
72.547034
72.532514
77.900653
81.798155
83.415997
84.510388
85.304469
86.257863
87.381947
88.359629
89.170784
89.962412
88.938828
87.840211
86.650412
85.624115
84.751891
83.596674
81.902251
77.899229
72.368238
72.385855
82.622032
87.212860
88.486851
89.817973
89.090815
88.020104
86.930079
82.500216
72.319346
72.410611
82.636411
87.103474
88.349205
89.778757
88.976759
87.873400
86.835374
82.549087
73.864917
73.929355
81.295410
85.601745
87.498831
88.826212
89.907683
89.235439
88.388172
87.169517
85.349358
81.129543
73.768898
73.903523
81.323008
85.815780
87.649757
88.910545
89.952239
89.216686
88.431295
87.295771
85.578773
81.258991
73.587801
72.648924
83.906431
88.063178
89.141820
89.663361
88.897368
88.342594
87.600811
83.813714
73.638299
72.791457
83.765192
83.765192
87.878789
88.847912
89.902756
88.940254
88.120821
87.395940
83.501235
83.501235
74.866932
73.933784
82.101049
86.341050
87.899610
88.895299
89.762734
89.444664
88.655576
87.685551
86.114076
81.839752
74.650600
73.772752
81.572853
86.082518
87.964464
89.147890
89.930629
89.275423
88.651886
87.663717
85.962335
81.682240
74.245817
73.670364
83.176233
83.176233
86.986864
88.198416
88.781307
89.077810
89.725663
89.466433
88.687595
87.294955
83.074312
83.074312
75.221702
75.081623
82.834176
82.834176
86.819739
88.185904
88.916848
89.357863
89.935062
89.375831
88.507359
86.951035
83.997858
83.997858
71.314613
72.027140
83.354105
83.354105
86.271351
87.951770
88.916821
89.610104
89.698830
88.977690
88.010647
86.331987
83.428849
83.428849
71.361119
72.099960
83.584212
83.584212
86.403678
87.883943
88.746014
89.479355
89.708066
88.883397
87.966015
86.432013
83.555239
83.555239
74.419822
73.936173
81.715280
85.837541
87.583830
88.742129
89.562822
89.724820
88.869700
87.715681
85.986035
81.876098
74.542840
74.022731
81.680450
85.976097
87.662527
88.742519
89.450598
89.854403
88.991265
87.829207
86.061446
81.637414
74.155649
74.955568
82.037923
82.037923
86.499052
88.311672
89.781499
87.206437
82.255674
74.219420
74.806164
82.271062
86.766171
88.575629
89.841017
87.477774
82.574748
73.720613
73.603992
81.008893
85.257175
87.129781
88.468744
89.542979
89.400400
88.756210
88.351904
87.553557
86.430134
84.744018
80.783582
73.697679
73.593506
80.966709
85.363242
87.176811
88.430791
89.480966
89.411856
88.617611
88.242197
87.539682
86.509547
84.890447
80.782009
73.757280
73.069293
80.785693
85.098264
86.639982
87.568233
88.355946
89.148778
89.954352
89.190970
88.565540
87.917861
87.233283
86.329342
85.425704
81.300347
72.053774
71.463977
80.913182
85.056982
86.306509
87.517582
88.376267
89.171636
89.986333
89.406726
88.736134
88.023885
87.274580
86.237232
84.482745
80.301667
74.687865
74.485899
82.368740
86.714744
88.532690
89.760888
89.248432
88.248108
86.562969
82.376985
74.767034
74.585294
82.422604
86.803940
88.590063
89.691600
89.414958
88.391045
86.641007
82.288761
73.373516
71.314630
82.433624
86.428627
87.442477
88.419027
89.042813
89.438372
89.928268
89.243381
88.511149
87.457260
86.362342
82.317009
73.271390
71.352415
81.696854
81.696854
86.140503
87.373943
88.439108
89.115180
89.714941
89.662074
89.114471
88.478710
87.429317
86.232592
81.784141
81.784141
70.667378
70.162240
81.646482
84.692909
86.720798
88.000032
89.033921
89.846417
88.764210
87.590527
85.714051
81.167652
73.726588
73.436455
80.822475
85.058228
86.815836
87.862421
88.494484
89.455220
89.187328
87.707985
85.426802
82.051735
72.489662
73.138293
80.928432
85.738203
87.819304
89.360381
89.021562
88.035572
87.432680
86.388394
84.666574
80.610711
72.143848
72.460849
82.437329
86.006163
88.304147
89.783922
88.753423
87.890257
87.700694
86.808894
85.052772
81.942541
74.953164
75.023200
82.534467
86.684443
88.194910
89.092988
89.701247
89.762808
89.139540
88.219708
86.697105
82.529681
74.941686
75.027585
82.543558
86.525532
88.012138
88.987334
89.680112
89.719346
89.019261
88.043004
86.546662
82.555456
72.611740
72.858371
80.470243
84.816226
86.531006
87.465835
88.054912
88.552671
89.143249
89.899147
88.936815
88.060403
87.888511
87.548048
87.289177
87.082495
86.777923
86.015377
84.538372
80.490966
74.741698
74.714144
80.853555
85.082579
86.492479
87.176245
87.711004
88.332152
89.038835
89.797131
89.297629
88.642428
88.428704
87.851062
87.284497
86.808265
86.417200
85.766377
84.267772
81.448528
72.760144
72.464348
79.754412
84.519600
86.864445
88.405060
89.717601
88.829410
87.975345
87.781353
87.052402
85.930129
83.985047
79.687379
72.909427
72.656839
79.799526
84.300949
86.419379
87.930599
89.373887
89.205245
88.332392
87.690929
86.661069
85.411873
83.540608
79.356462
74.112479
73.454267
81.307369
85.647388
87.591859
88.898771
89.861501
89.115784
88.497441
88.393232
87.828600
86.799975
85.088898
81.068245
74.081343
73.465085
81.000132
85.339988
87.202444
88.588924
89.695737
89.225369
88.502059
88.249357
87.505199
86.358292
84.737117
80.753869
71.922289
72.182965
81.578908
85.965287
87.196924
88.426227
89.233036
89.971169
88.867403
87.480158
86.086885
81.539956
71.829034
72.106806
81.618474
85.934247
87.097207
88.361980
89.336511
89.771591
88.652623
87.332859
86.145272
81.786846
75.729195
75.745505
82.203440
82.203440
86.001695
87.256341
88.051210
88.564449
88.637874
89.183678
89.892065
89.051875
88.051396
86.622415
82.588399
82.588399
75.951171
75.807471
82.455024
82.455024
86.367875
87.642130
88.241315
88.424364
88.460535
89.070802
89.987075
89.280157
88.415323
86.882330
82.582991
82.582991
75.185290
73.898429
82.445037
86.660511
88.293658
89.305543
89.805876
89.128969
88.610778
87.735485
86.232982
82.202283
75.033782
73.902401
81.880318
86.356357
88.274044
89.504524
89.516845
89.045513
88.657934
87.676680
86.015915
81.783833
76.139852
75.586170
83.949484
83.949484
87.833626
88.975017
89.418771
89.947538
89.331060
88.048811
83.969818
83.969818
76.097482
75.315180
83.486905
83.486905
87.451112
88.763270
89.471815
89.820361
89.037814
87.721088
83.777945
83.777945
73.691015
74.063991
84.104161
84.104161
87.079771
88.732536
89.610954
89.605047
88.737510
87.081467
84.095262
84.095262
73.706619
74.001475
83.015926
83.015926
87.045512
88.628579
89.535825
89.667849
88.711774
87.084340
83.043207
83.043207
72.806440
72.447275
82.831717
86.809082
87.762605
88.771217
89.884048
88.592668
87.315865
83.011569
72.818685
72.394509
82.732758
82.732758
86.913873
87.868968
88.810432
89.839991
88.705116
87.400565
82.916770
82.916770
75.199025
75.491363
83.075209
87.215550
88.848667
89.731510
89.617223
88.758061
87.125374
82.967861
75.122399
75.409556
83.054245
87.051402
88.622960
89.707460
89.408421
88.452903
86.980618
83.099005
72.758393
72.736974
79.674571
83.936687
85.770458
86.990717
87.949713
88.879527
89.880692
89.199415
88.406829
87.600374
86.734609
85.589557
83.812157
79.629103
72.770345
72.735317
79.678497
83.835895
85.649798
86.906048
87.972150
88.974811
89.942550
89.288667
88.526492
87.622178
86.640025
85.446989
83.702953
79.630506
75.432944
75.795712
83.462415
87.460695
88.995166
89.825831
88.995377
88.256129
86.960397
83.230212
75.389191
75.825881
83.607815
87.731874
89.264836
89.738201
89.102428
88.549895
87.256087
83.413465
73.910890
72.439023
83.677775
86.724174
88.567599
89.551585
89.539581
88.875672
88.596173
87.805340
86.194910
83.250666
74.015167
72.518625
81.564726
86.189485
88.068827
89.323917
89.453521
88.634818
88.082422
87.179793
85.624705
81.642066
76.869607
76.876396
83.636344
87.260626
88.454702
89.140112
89.448739
89.711166
89.797241
89.471567
89.146788
88.433687
87.216102
83.572291
76.802766
76.810187
83.487919
87.134797
88.464693
89.255572
89.620542
89.879249
89.719338
89.557730
89.230079
88.474204
87.175952
83.552987
72.636682
72.936058
84.159384
84.159384
87.156839
88.661718
89.532514
89.678215
89.063640
88.792403
88.085762
86.758552
84.006913
84.006913
72.978757
72.660138
84.212314
84.212314
87.064104
88.444828
89.317458
89.806211
89.081894
88.591964
87.859294
86.638362
83.997523
83.997523
77.464837
77.099149
85.103680
88.531096
89.609317
89.969693
89.954066
89.999258
89.968102
89.790936
89.728870
89.733775
89.757871
89.467245
88.487395
85.450232
76.743574
74.640722
86.229236
88.143370
89.073902
89.609267
89.751251
89.784974
89.870166
89.879841
89.799596
89.745320
89.609998
89.154665
88.212350
84.910252
75.155921
74.078425
82.390946
86.424741
87.836296
88.600910
89.034387
89.754310
89.354822
88.418412
86.863999
82.614137
75.263770
74.005336
81.951701
86.155724
87.702077
88.611533
89.027060
89.589618
89.450815
88.310210
86.559309
82.115940
72.128907
72.750594
82.173622
86.760913
88.049661
89.184578
89.938387
89.217065
88.583964
87.556584
86.440246
82.088566
72.123272
72.818554
82.299519
86.672613
87.973154
89.150864
89.920000
89.245687
88.560962
87.496143
86.356411
82.171273
74.106188
74.951727
81.923839
86.124315
87.796368
88.920252
89.664605
89.764896
88.962852
87.792637
86.058817
81.786440
73.975247
74.804174
82.078526