# vtk DataFile Version 3.0
Dislocation network (FCC crystal) exported from OpenDiS
ASCII
DATASET UNSTRUCTURED_GRID
POINTS 4378 FLOAT
0.00000000e+00 0.00000000e+00 0.00000000e+00
1.95620000e+04 0.00000000e+00 0.00000000e+00
0.00000000e+00 1.95620000e+04 0.00000000e+00
0.00000000e+00 0.00000000e+00 1.95620000e+04
1.95620000e+04 1.95620000e+04 0.00000000e+00
1.95620000e+04 0.00000000e+00 1.95620000e+04
0.00000000e+00 1.95620000e+04 1.95620000e+04
1.95620000e+04 1.95620000e+04 1.95620000e+04
2.20595102e+03 6.29787192e+03 1.27387989e+04
2.21358650e+03 6.29600517e+03 1.27445676e+04
2.20595102e+03 6.29787192e+03 1.27387989e+04
2.26967216e+03 6.31842252e+03 1.26956283e+04
1.93971172e+03 1.69629614e+04 1.59784703e+04
1.85613813e+03 1.70150984e+04 1.59470337e+04
1.93971172e+03 1.69629614e+04 1.59784703e+04
2.00196194e+03 1.69182686e+04 1.59960278e+04
2.43201673e+03 6.20764296e+03 1.28746356e+04
2.37561375e+03 6.23310597e+03 1.28436956e+04
2.43201673e+03 6.20764296e+03 1.28746356e+04
2.56414455e+03 6.14532368e+03 1.29444441e+04
2.56414455e+03 6.14532368e+03 1.29444441e+04
2.69449423e+03 6.08230138e+03 1.30117715e+04
2.69449423e+03 6.08230138e+03 1.30117715e+04
2.81934789e+03 6.14543444e+03 1.29500509e+04
2.81934789e+03 6.14543444e+03 1.29500509e+04
2.95438047e+03 6.21065783e+03 1.28802417e+04
2.95438047e+03 6.21065783e+03 1.28802417e+04
3.01567150e+03 6.23858207e+03 1.28468749e+04
4.63016283e+03 1.34544852e+04 1.04354223e+04
4.67263249e+03 1.34139841e+04 1.05183930e+04
4.63016283e+03 1.34544852e+04 1.04354223e+04
4.54189045e+03 1.35327651e+04 1.02688700e+04
3.18303743e+03 6.30224440e+03 1.27431713e+04
3.17526529e+03 6.30036352e+03 1.27490626e+04
3.18303743e+03 6.30224440e+03 1.27431713e+04
3.11754445e+03 6.32321025e+03 1.26986442e+04
6.96148426e+03 4.31406155e+03 9.37932279e+03
7.04924729e+03 4.35078306e+03 9.43036432e+03
6.96148426e+03 4.31406155e+03 9.37932279e+03
6.87288001e+03 4.28489190e+03 9.31988819e+03
2.94012754e+03 6.39975036e+03 1.25977674e+04
3.05317194e+03 6.34827463e+03 1.26593361e+04
2.94012754e+03 6.39975036e+03 1.25977674e+04
2.81459516e+03 6.45934795e+03 1.25318326e+04
2.81459516e+03 6.45934795e+03 1.25318326e+04
2.69449423e+03 6.51780708e+03 1.24701908e+04
2.69449423e+03 6.51780708e+03 1.24701908e+04
2.57055342e+03 6.45565975e+03 1.25319843e+04
2.57055342e+03 6.45565975e+03 1.25319843e+04
2.44570185e+03 6.39525258e+03 1.25964287e+04
2.44570185e+03 6.39525258e+03 1.25964287e+04
2.33091578e+03 6.34241467e+03 1.26583769e+04
7.78645795e+03 4.31743349e+03 9.37738188e+03
7.86032399e+03 4.29176567e+03 9.32918366e+03
7.78645795e+03 4.31743349e+03 9.37738188e+03
7.69860072e+03 4.35396571e+03 9.42870689e+03
1.68050128e+04 1.71063771e+04 1.28856498e+04
1.67050010e+04 1.71970790e+04 1.28949598e+04
1.68050128e+04 1.71063771e+04 1.28856498e+04
1.68006258e+04 1.71022992e+04 1.28853406e+04
6.22931342e+03 1.86148554e+03 7.46850001e+03
6.18807262e+03 1.79952865e+03 7.36530232e+03
6.22931342e+03 1.86148554e+03 7.46850001e+03
6.27695350e+03 1.94706227e+03 7.60171682e+03
1.66665123e+04 1.69816129e+04 1.28719134e+04
1.68006258e+04 1.71022992e+04 1.28853406e+04
1.66665123e+04 1.69816129e+04 1.28719134e+04
1.65467294e+04 1.68792383e+04 1.28545051e+04
1.65467294e+04 1.68792383e+04 1.28545051e+04
1.63991201e+04 1.67582011e+04 1.28279331e+04
4.43513740e+03 1.76450539e+04 1.63472713e+04
4.44248316e+03 1.76431466e+04 1.63418328e+04
4.43513740e+03 1.76450539e+04 1.63472713e+04
4.34982820e+03 1.76753344e+04 1.64023000e+04
1.62703528e+04 1.66564681e+04 1.28008988e+04
1.63478502e+04 1.67170070e+04 1.28178573e+04
1.62703528e+04 1.66564681e+04 1.28008988e+04
1.61423172e+04 1.65608060e+04 1.27685253e+04
1.61423172e+04 1.65608060e+04 1.27685253e+04
1.60228755e+04 1.64772233e+04 1.27326663e+04
1.60228755e+04 1.64772233e+04 1.27326663e+04
1.59083655e+04 1.64016653e+04 1.26937143e+04
1.59083655e+04 1.64016653e+04 1.26937143e+04
1.57854604e+04 1.63257855e+04 1.26466889e+04
1.57854604e+04 1.63257855e+04 1.26466889e+04
1.56596401e+04 1.62535317e+04 1.25931224e+04
1.56596401e+04 1.62535317e+04 1.25931224e+04
1.55336331e+04 1.61856810e+04 1.25349662e+04
1.55336331e+04 1.61856810e+04 1.25349662e+04
1.54204365e+04 1.61277323e+04 1.24797183e+04
1.54204365e+04 1.61277323e+04 1.24797183e+04
1.52967702e+04 1.61910540e+04 1.25400630e+04
1.52967702e+04 1.61910540e+04 1.25400630e+04
1.51739534e+04 1.62575891e+04 1.25963446e+04
1.51739534e+04 1.62575891e+04 1.25963446e+04
1.50507388e+04 1.63290063e+04 1.26481421e+04
1.50507388e+04 1.63290063e+04 1.26481421e+04
1.49276162e+04 1.64057758e+04 1.26944952e+04
1.49276162e+04 1.64057758e+04 1.26944952e+04
1.47839754e+04 1.65027824e+04 1.27411293e+04
5.36624543e+03 1.15987962e+04 9.10743728e+03
5.42733665e+03 1.16177970e+04 9.14952765e+03
5.36624543e+03 1.15987962e+04 9.10743728e+03
5.34132267e+03 1.15931667e+04 9.08814396e+03
1.46931762e+04 1.65674967e+04 1.27672142e+04
1.47839754e+04 1.65027824e+04 1.27411293e+04
1.46931762e+04 1.65674967e+04 1.27672142e+04
1.45624022e+04 1.66659950e+04 1.27994899e+04
1.45624022e+04 1.66659950e+04 1.27994899e+04
1.44254314e+04 1.67750642e+04 1.28273916e+04
1.44254314e+04 1.67750642e+04 1.28273916e+04
1.43853795e+04 1.68084896e+04 1.28340181e+04
1.42963611e+04 1.68827801e+04 1.28487459e+04
1.43853795e+04 1.68084896e+04 1.28340181e+04
1.42963611e+04 1.68827801e+04 1.28487459e+04
1.41755210e+04 1.69873902e+04 1.28649760e+04
5.28487660e+03 4.78085350e+03 1.18544198e+04
5.34651692e+03 4.65407669e+03 1.19195563e+04
5.28487660e+03 4.78085350e+03 1.18544198e+04
5.22914354e+03 4.88970388e+03 1.18013025e+04
8.84762006e+03 1.48778615e+04 1.19387408e+04
8.88984771e+03 1.49429514e+04 1.19616031e+04
8.84762006e+03 1.48778615e+04 1.19387408e+04
8.79308891e+03 1.47811984e+04 1.18966089e+04
1.40358603e+04 1.71140823e+04 1.28779446e+04
1.41347066e+04 1.72042630e+04 1.28866103e+04
1.40358603e+04 1.71140823e+04 1.28779446e+04
1.40452213e+04 1.71053391e+04 1.28773268e+04
1.41347066e+04 1.72042630e+04 1.28866103e+04
1.42755577e+04 1.73259962e+04 1.29057281e+04
1.42755577e+04 1.73259962e+04 1.29057281e+04
1.43861752e+04 1.74170997e+04 1.29252421e+04
1.43861752e+04 1.74170997e+04 1.29252421e+04
1.45125821e+04 1.75166657e+04 1.29520830e+04
1.45125821e+04 1.75166657e+04 1.29520830e+04
1.46447726e+04 1.76148533e+04 1.29860859e+04
1.46447726e+04 1.76148533e+04 1.29860859e+04
1.47660094e+04 1.76993295e+04 1.30228465e+04
1.47660094e+04 1.76993295e+04 1.30228465e+04
1.48707215e+04 1.77681063e+04 1.30587818e+04
1.48707215e+04 1.77681063e+04 1.30587818e+04
1.49765586e+04 1.78339362e+04 1.30987890e+04
1.49765586e+04 1.78339362e+04 1.30987890e+04
1.50891072e+04 1.79000905e+04 1.31451833e+04
1.50891072e+04 1.79000905e+04 1.31451833e+04
1.52021629e+04 1.79627028e+04 1.31956267e+04
1.52021629e+04 1.79627028e+04 1.31956267e+04
1.53156579e+04 1.80222989e+04 1.32495256e+04
1.53156579e+04 1.80222989e+04 1.32495256e+04
1.54204365e+04 1.80748792e+04 1.33017240e+04
1.54204365e+04 1.80748792e+04 1.33017240e+04
1.55302598e+04 1.80181088e+04 1.32486711e+04
1.55302598e+04 1.80181088e+04 1.32486711e+04
1.56408636e+04 1.79587125e+04 1.31974636e+04
1.56408636e+04 1.79587125e+04 1.31974636e+04
1.57546823e+04 1.78944905e+04 1.31478669e+04
1.57546823e+04 1.78944905e+04 1.31478669e+04
1.58667791e+04 1.78274679e+04 1.31027927e+04
1.58667791e+04 1.78274679e+04 1.31027927e+04
1.59696474e+04 1.77626064e+04 1.30647859e+04
1.59696474e+04 1.77626064e+04 1.30647859e+04
1.60729855e+04 1.76940176e+04 1.30300366e+04
1.60729855e+04 1.76940176e+04 1.30300366e+04
1.61944053e+04 1.76086134e+04 1.29940210e+04
1.61944053e+04 1.76086134e+04 1.29940210e+04
1.63248496e+04 1.75111167e+04 1.29610734e+04
1.63248496e+04 1.75111167e+04 1.29610734e+04
1.64489450e+04 1.74131396e+04 1.29349552e+04
1.64489450e+04 1.74131396e+04 1.29349552e+04
1.65589771e+04 1.73226494e+04 1.29154132e+04
1.65589771e+04 1.73226494e+04 1.29154132e+04
1.67050010e+04 1.71970790e+04 1.28949598e+04
9.66008849e+03 1.58658571e+04 3.54676899e+03
9.65839967e+03 1.58579881e+04 3.55294911e+03
9.66008849e+03 1.58658571e+04 3.54676899e+03
9.67655303e+03 1.58000635e+04 3.49743994e+03
2.15557185e+03 1.14535021e+04 3.36410567e+03
2.22520689e+03 1.14642633e+04 3.28370944e+03
2.15557185e+03 1.14535021e+04 3.36410567e+03
2.03451827e+03 1.14394600e+04 3.49920137e+03
9.60087748e+03 1.56894308e+04 3.66398428e+03
9.63493259e+03 1.57782078e+04 3.60926231e+03
9.60087748e+03 1.56894308e+04 3.66398428e+03
9.56623595e+03 1.56068418e+04 3.71193170e+03
1.33449955e+04 7.77921502e+03 4.83219311e+03
1.34084677e+04 7.75777431e+03 4.87422462e+03
1.33449955e+04 7.77921502e+03 4.83219311e+03
1.32892467e+04 7.79804676e+03 4.79527612e+03
9.48130429e+03 1.54184760e+04 3.81536585e+03
9.52509749e+03 1.55143730e+04 3.76326205e+03
9.48130429e+03 1.54184760e+04 3.81536585e+03
9.41804383e+03 1.52835499e+04 3.88703153e+03
9.41804383e+03 1.52835499e+04 3.88703153e+03
9.35892104e+03 1.51575639e+04 3.95389465e+03
9.35892104e+03 1.51575639e+04 3.95389465e+03
9.30632221e+03 1.50462315e+04 4.01262825e+03
9.30632221e+03 1.50462315e+04 4.01262825e+03
9.25482390e+03 1.49388182e+04 4.06854328e+03
9.25482390e+03 1.49388182e+04 4.06854328e+03
9.19955514e+03 1.48256007e+04 4.12649197e+03
9.19955514e+03 1.48256007e+04 4.12649197e+03
9.14093232e+03 1.47080389e+04 4.18543099e+03
9.14093232e+03 1.47080389e+04 4.18543099e+03
9.08175937e+03 1.45902421e+04 4.24405482e+03
9.08175937e+03 1.45902421e+04 4.24405482e+03
9.02217593e+03 1.44717355e+04 4.30297803e+03
9.02217593e+03 1.44717355e+04 4.30297803e+03
9.07850991e+03 1.43588945e+04 4.24647109e+03
9.07850991e+03 1.43588945e+04 4.24647109e+03
9.13907996e+03 1.42376314e+04 4.18577802e+03
9.13907996e+03 1.42376314e+04 4.18577802e+03
9.19744799e+03 1.41198538e+04 4.12636846e+03
9.19744799e+03 1.41198538e+04 4.12636846e+03
9.25319059e+03 1.40053603e+04 4.06761750e+03
9.25319059e+03 1.40053603e+04 4.06761750e+03
9.30516436e+03 1.38967797e+04 4.01101073e+03
9.30516436e+03 1.38967797e+04 4.01101073e+03
9.35702050e+03 1.37865684e+04 3.95265553e+03
9.35702050e+03 1.37865684e+04 3.95265553e+03
[...]
CELL_DATA 2186
SCALARS SlipSystemID int 1
LOOKUP_TABLE default
0
10
7
10
10
10
10
10
7
7
7
6
6
7
10
4
4
10
10
10
7
7
7
1
1
1
4
12
12
4
4
4
1
1
4
4
4
4
4
4
4
4
1
1
1
1
1
4
4
1
1
1
1
1
1
2
2
8
8
4
1
4
4
4
4
4
4
4
4
4
4
4
1
1
1
1
1
1
1
1
1
1
1
5
11
3
3
5
5
10
10
5
5
5
5
5
5
5
5
5
11
11
11
11
11
11
11
11
11
10
10
11
11
4
4
11
5
5
5
5
5
5
5
5
5
5
5
5
11
11
11
11
11
11
11
11
11
11
11
8
2
10
10
2
2
12
12
12
2
2
2
8
8
8
7
7
1
1
8
8
7
7
2
8
6
6
2
2
2
2
2
2
8
8
8
8
8
8
6
6
9
5
5
6
6
6
6
6
6
9
9
9
9
9
9
9
9
5
5
6
9
4
4
6
6
6
6
6
6
6
9
9
9
9
9
9
9
4
4
3
12
8
8
3
3
8
8
8
8
3
3
3
3
3
3
12
12
12
12
12
10
10
12
12
12
12
6
6
9
9
3
12
3
3
3
3
3
3
3
3
3
12
12
12
12
12
12
12
12
12
10
7
10
10
10
10
10
10
7
7
7
7
7
7
7
10
10
10
10
10
10
10
10
10
7
7
7
7
7
10
1
4
12
12
4
4
7
4
4
4
4
4
4
4
1
1
1
1
1
1
1
12
12
1
1
9
9
4
1
6
6
4
4
4
4
4
4
4
4
4
1
1
1
1
1
1
1
1
1
2
11
5
3
3
5
5
5
5
11
5
5
9
9
11
11
7
7
11
5
9
9
5
5
5
5
11
11
11
11
9
9
8
2
7
7
2
2
2
2
2
8
8
8
8
8
7
8
2
12
12
2
2
9
9
2
2
2
8
8
8
9
8
8
5
5
6
9
8
8
6
6
6
6
9
9
9
9
9
6
3
3
6
6
6
3
3
6
1
1
12
12
9
9
5
3
12
3
3
3
3
3
12
12
12
12
12
12
3
3
3
3
3
5
4
4
4
4
3
12
6
6
6
6
2
2
12
12
2
2
7
1
1
10
10
10
10
7
7
1
1
7
7
7
7
1
1
7
10
8
8
10
10
10
10
10
7
7
7
7
7
2
2
4
1
8
8
4
4
11
11
4
4
4
1
1
1
11
11
1
1
3
3
1
4
12
12
4
4
4
4
4
1
1
1
1
1
10
10
5
11
5
5
5
5
5
11
11
11
11
11
11
5
8
8
5
5
5
9
9
5
5
11
11
6
6
11
11
11
8
8
2
8
10
10
2
2
2
8
8
8
12
12
8
2
12
2
2
2
8
8
8
10
10
6
9
6
6
5
5
6
6
6
6
9
9
9
5
5
9
7
6
3
3
6
6
6
6
6
6
9
9
9
9
9
10
10
6
6
3
3
3
3
3
3
3
3
12
12
12
12
12
12
12
12
3
2
2
3
3
3
5
3
3
3
3
12
12
2
2
2
2
12
11
11
10
7
10
10
10
10
7
7
7
7
7
10
12
10
10
11
11
10
10
7
7
7
7
4
4
1
4
4
4
1
1
4
4
4
4
1
1
1
1
1
1
10
10
9
9
4
4
10
10
4
4
4
1
1
1
11
11
1
1
3
3
5
11
5
5
5
5
5
11
11
11
11
11
11
5
7
7
5
5
5
11
11
5
5
11
11
11
11
7
7
11
11
6
2
8
12
12
2
2
2
6
6
6
6
8
8
8
8
11
8
2
2
2
2
2
2
8
8
8
8
8
6
9
11
11
11
11
11
6
6
6
9
9
9
5
5
5
5
6
9
10
10
6
6
6
6
6
9
9
9
9
9
8
8
3
12
8
3
10
10
3
3
3
3
3
3
3
12
12
12
12
12
12
2
2
12
12
12
2
3
12
3
3
3
3
3
3
3
3
3
12
12
12
12
12
12
12
12
12
10
7
6
6
6
10
10
10
10
10
7
7
7
7
2
2
2
2
12
10
10
10
10
10
7
7
7
7
7
7
12
12
1
4
11
11
4
4
4
4
4
4
1
1
1
1
1
1
1
6
6
4
11
11
4
4
4
6
4
4
4
1
1
1
1
1
7
11
5
7
5
5
11
11
5
11
11
10
10
5
5
5
5
5
5
11
11
11
11
11
8
3
3
3
2
2
2
2
8
8
8
8
8
8
8
8
9
9
8
2
2
2
2
2
2
2
8
8
8
8
8
8
4
4
6
9
6
6
6
6
6
9
9
9
9
9
9
9
6
1
6
6
5
5
11
11
6
6
9
11
11
4
4
9
9
9
11
3
4
4
3
3
3
3
12
12
12
12
3
3
3
12
5
3
3
11
3
3
12
11
11
12
12
10
7
10
10
10
10
10
7
7
7
7
11
7
9
10
6
10
7
7
7
11
7
7
6
4
1
4
4
4
4
1
1
1
1
1
7
4
4
4
7
1
1
1
5
11
10
10
5
5
5
5
5
11
5
11
5
5
5
5
5
11
11
11
11
11
2
2
2
3
2
2
2
2
8
8
8
8
8
8
2
1
2
2
2
2
2
2
2
8
8
8
8
8
8
6
9
4
6
6
6
6
9
9
1
10
10
9
6
6
6
6
6
9
9
9
9
3
3
3
3
3
3
12
12
12
12
12
12
3
10
3
3
6
6
6
3
8
8
6
12
12
12
6
10
7
10
10
10
10
10
10
7
7
7
7
7
7
9
7
10
9
10
10
10
10
10
10
7
7
7
7
7
7
9
4
1
4
4
4
4
4
1
1
9
9
1
4
2
2
4
4
4
4
4
1
1
1
1
1
2
8
5
5
5
5
5
5
11
11
11
11
11
11
11
12
12
5
5
5
5
5
5
5
5
5
5
11
11
11
7
11
11
11
4
4
8
2
1
1
2
2
2
2
2
8
8
8
8
8
8
5
5
2
2
8
12
12
8
8
6
6
6
6
6
6
6
9
9
9
9
9
9
6
6
6
7
6
4
4
12
9
9
9
7
7
3
12
3
7
3
3
12
12
8
8
12
8
3
2
2
3
3
3
3
3
12
12
12
12
12
2
2
10
7
9
9
10
10
10
10
10
10
10
7
7
3
3
7
3
10
10
10
10
10
10
10
7
7
7
7
7
7
1
4
4
4
4
1
1
1
1
1
1
4
2
9
4
4
4
1
1
9
1
1
1
5
11
5
5
5
5
5
5
5
5
11
11
11
11
11
5
5
5
5
5
5
5
5
11
11
11
11
11
11
11
5
8
2
2
2
2
8
8
8
8
7
7
8
11
2
2
1
8
8
8
8
8
2
9
12
12
6
9
12
12
6
6
6
6
6
6
9
9
9
9
9
12
3
6
3
12
12
12
9
3
3
3
3
3
3
3
12
12
12
12
12
7
3
9
7
7
7
7
1
7
3
3
10
7
7
7
7
3
4
1
4
4
4
4
1
1
1
1
1
4
12
4
4
4
4
1
1
1
1
3
11
5
3
3
5
5
3
3
5
5
5
11
11
11
10
10
11
11
5
5
5
5
11
11
11
11
11
11
2
8
11
2
2
2
8
11
8
4
8
2
2
2
2
2
2
8
8
8
8
8
9
12
6
6
12
12
6
6
9
9
9
9
9
9
6
6
6
6
6
6
6
9
9
9
9
9
9
12
3
3
3
12
12
12
12
10
10
3
12
3
3
3
3
3
3
3
12
12
12
12
12
10
10
10
10
10
10
7
7
7
7
7
7
10
10
10
7
12
4
6
6
4
4
4
4
4
1
1
1
1
1
6
6
4
1
6
6
4
4
4
4
1
1
1
1
4
5
5
5
11
5
5
5
5
11
4
11
11
8
8
11
5
5
5
5
5
11
11
11
11
8
2
2
2
2
2
8
8
8
4
4
8
2
5
2
2
2
8
8
8
6
9
6
6
6
6
9
9
9
9
9
11
11
11
7
3
9
12
12
10
5
3
12
12
12
9
12
3
3
3
3
3
3
12
12
12
12
12
7
4
4
4
4
10
10
10
10
7
7
1
7
7
2
2
10
10
10
10
7
7
7
2
2
7
7
7
4
4
4
4
4
1
1
9
9
1
4
4
4
4
1
1
1
7
7
5
5
5
5
5
11
11
11
11
11
4
4
2
5
5
5
5
11
11
11
11
1
1
2
9
2
2
2
2
2
2
2
2
8
8
8
8
8
9
2
2
2
2
2
8
8
2
8
8
8
8
8
9
6
9
9
9
8
8
9
6
3
6
6
6
9
9
9
3
12
7
3
3
3
3
12
3
3
3
3
3
3
12
12
12
12
12
10
7
3
10
10
10
10
7
7
7
7
7
7
7
7
10
10
10
10
10
10
10
10
7
7
7
7
7
7
7
1
8
8
4
4
4
4
4
4
1
1
1
1
1
1
1
1
1
7
4
9
4
4
4
4
4
1
1
1
1
1
1
1
1
5
5
5
5
11
11
11
11
11
5
11
4
4
1
5
11
11
11
1
1
8
2
8
2
2
2
2
8
8
8
8
3
8
1
1
2
2
8
8
8
1
1
6
9
8
3
6
9
9
9
12
12
9
6
6
6
6
9
9
9
9
3
12
3
3
3
3
12
12
12
12
12
12
12
6
6
12
6
7
10
10
10
10
2
10
10
10
10
7
7
7
7
6
7
7
11
7
10
3
10
10
10
10
10
10
10
7
7
7
7
7
7
7
4
4
4
4
4
1
1
1
1
1
1
4
1
10
5
5
5
5
5
11
11
11
11
11
3
5
5
5
11
11
11
3
8
8
5
5
4
8
8
5
11
4
12
10
10
7
7
10
7
7
4
1
5
8
12
12
7
7
10
1
2
2
8
1
10
4
9
8
2
5
8
10
1
7
10
8
12
2
7
12
12
8
8
3
10
7
10
7
13
5
9
5
11
2
2
10
SCALARS DislocationType int 1
LOOKUP_TABLE default
0
2
3
3
3
3
3
3
3
3
3
3
3
2
3
3
3
3
3
3
3
3
3
3
3
2
2
3
3
2
2
2
2
3
2
2
3
3
3
3
3
3
3
3
3
3
3
3
2
3
2
2
2
2
2
3
3
3
3
2
2
2
2
2
2
3
3
3
3
3
3
3
3
3
3
3
3
3
3
2
2
2
2
2
2
2
2
3
3
3
3
3
3
3
3
3
3
3
3
3
3
3
3
3
3
3
3
3
3
2
2
3
3
3
3
2
2
3
3
3
3
3
3
3
3
3
3
3
3
3
3
3
3
3
3
3
3
3
3
3
2
3
3
3
3
2
2
3
3
3
3
3
3
3
3
3
3
3
3
3
2
2
3
2
3
3
3
3
3
3
3
3
3
3
3
3
3
3
2
2
2
3
3
2
3
3
3
3
3
3
3
3
3
3
3
3
2
2
3
2
2
3
3
3
3
3
3
3
3
3
3
3
3
3
3
3
3
2
3
2
2
3
2
3
3
2
2
2
2
3
3
3
3
3
3
3
3
3
3
3
3
3
3
3
3
3
3
3
3
3
2
2
3
3
3
3
3
3
3
3
3
3
3
3
3
3
3
3
3
3
2
2
3
3
3
3
3
3
3
3
3
3
3
3
2
2
2
3
3
3
3
3
3
3
3
3
3
3
3
3
2
2
3
3
2
2
3
2
2
2
3
3
3
3
3
3
3
3
2
2
2
2
3
2
2
3
3
2
2
3
3
2
2
2
2
2
3
3
3
3
3
3
3
3
2
2
2
2
2
3
3
3
3
3
3
3
3
3
3
2
2
2
3
3
3
3
3
2
2
3
3
3
3
3
3
3
3
3
3
3
3
2
3
2
3
3
3
3
3
3
3
3
3
3
3
3
2
2
3
3
3
3
3
3
3
3
3
3
3
3
2
3
3
2
3
2
2
3
3
3
3
3
3
3
3
3
3
2
2
3
3
3
3
3
3
3
3
3
3
3
3
3
3
3
3
2
3
3
3
3
3
3
3
3
3
3
3
2
3
3
3
3
3
3
3
2
2
3
3
3
3
2
2
2
2
3
3
2
2
2
2
3
3
3
3
3
3
3
3
3
3
3
3
3
3
3
2
2
2
2
3
3
3
3
3
3
3
3
3
3
2
2
3
3
2
2
3
3
2
3
3
3
3
3
3
3
3
3
3
3
3
3
3
3
3
3
3
3
3
3
3
3
3
3
3
3
3
2
2
2
3
3
3
3
3
3
3
3
3
3
2
2
3
3
3
3
3
3
3
3
3
3
3
3
3
3
3
3
3
3
2
3
3
3
3
3
3
3
3
3
3
3
2
3
3
3
3
3
3
3
3
2
3
2
3
3
3
3
3
3
3
3
3
3
3
3
2
3
3
3
3
3
3
3
3
3
3
3
3
3
3
3
3
3
3
3
2
3
2
3
3
3
3
3
3
3
3
3
3
3
3
3
3
2
2
3
3
2
3
3
3
3
3
3
3
3
3
2
2
3
3
3
3
3
2
2
3
3
3
3
3
3
3
3
2
2
3
3
3
2
2
3
3
3
3
3
3
2
2
2
3
3
3
2
2
3
3
3
3
3
3
3
3
3
3
3
3
3
3
3
3
2
3
3
3
3
3
3
3
3
3
3
3
3
3
2
2
3
3
3
3
3
3
3
3
3
3
3
2
2
3
3
3
3
3
3
3
3
3
3
2
3
3
3
3
3
3
2
2
3
3
3
3
3
3
2
3
3
3
3
3
3
3
2
2
3
3
3
3
3
3
3
3
3
3
2
2
3
2
2
2
2
3
3
3
3
3
3
3
3
2
2
2
2
3
3
3
3
3
3
3
3
3
3
3
3
3
3
2
2
2
2
2
3
2
2
2
3
3
3
3
3
3
3
3
3
2
3
3
2
2
2
2
2
2
2
2
2
2
2
3
3
3
3
3
3
3
3
3
2
2
2
2
2
2
2
3
3
3
3
3
3
3
3
3
3
3
3
3
2
3
3
3
3
3
3
3
3
3
3
3
3
3
2
2
2
2
3
3
3
3
3
3
3
3
3
3
3
3
3
3
2
3
3
2
3
3
3
3
3
2
3
3
3
3
3
3
3
3
3
2
3
3
3
3
3
3
3
3
3
3
3
2
3
3
3
3
3
3
3
3
3
3
2
2
3
3
3
3
3
3
3
3
3
3
3
3
3
3
3
3
2
2
3
3
3
3
3
3
3
3
3
3
3
3
3
2
3
2
3
3
3
3
3
3
3
3
3
3
3
2
2
2
3
3
3
3
3
3
3
3
3
2
3
3
3
3
3
3
3
3
2
2
3
3
3
3
3
3
3
3
3
3
2
3
3
3
3
3
3
3
3
3
3
3
3
2
3
3
3
3
3
3
3
3
3
3
2
2
2
3
3
3
3
3
3
3
3
3
3
2
2
3
3
3
3
3
3
3
3
2
3
3
3
2
2
2
3
3
2
2
3
3
3
3
3
3
3
3
2
2
2
3
3
3
3
3
3
3
3
3
3
3
3
3
3
3
3
3
3
3
3
3
3
3
2
3
3
3
3
3
3
3
3
3
3
3
3
3
3
2
3
2
3
3
3
3
3
3
2
3
3
2
2
3
3
3
3
3
3
3
3
3
3
3
3
3
3
3
3
3
3
3
3
2
2
3
3
3
3
3
3
3
3
3
3
3
3
3
3
3
3
3
3
3
3
3
3
3
3
3
3
3
3
3
3
3
3
3
3
3
3
3
3
3
3
3
3
3
3
2
2
3
3
3
3
3
3
3
2
3
3
2
3
3
3
3
3
3
3
3
3
3
3
3
3
2
2
3
3
3
3
3
3
3
3
3
3
2
2
2
3
2
2
2
2
3
3
3
3
3
3
3
3
3
2
2
2
2
3
3
2
3
3
3
3
3
3
3
3
3
3
3
3
3
3
3
3
3
3
3
3
3
3
3
3
3
3
3
3
3
3
3
3
3
3
3
2
3
3
3
3
3
3
3
2
3
3
3
3
3
3
3
3
2
3
3
3
3
3
3
3
2
3
3
3
3
3
3
3
3
3
3
3
3
3
2
3
2
2
3
3
2
3
3
3
3
3
3
3
3
3
3
3
2
2
2
3
3
3
3
3
3
3
3
3
3
2
2
3
3
3
3
3
3
3
3
3
3
2
3
3
3
3
3
3
3
3
3
3
3
2
2
2
2
3
3
3
3
3
3
3
3
3
3
2
2
2
2
3
3
3
3
3
3
3
3
3
3
2
2
2
3
3
3
3
3
3
3
3
3
3
3
3
2
3
3
2
3
3
3
3
3
2
2
3
3
3
3
3
2
2
3
3
3
3
3
3
3
3
3
3
3
3
3
3
3
3
3
3
2
3
3
3
3
3
3
3
3
3
3
3
2
2
3
3
3
3
3
3
3
3
3
3
3
3
3
3
2
2
2
3
3
3
3
3
3
3
3
2
2
2
3
3
3
3
3
3
3
3
3
3
2
3
3
3
3
2
3
3
3
3
3
3
3
3
3
3
2
3
3
3
3
3
3
3
3
3
3
2
3
3
3
3
3
3
3
3
2
3
3
3
3
3
3
3
3
3
3
3
3
2
2
3
3
3
3
3
3
3
3
3
3
3
2
2
2
3
3
3
3
3
3
3
3
3
3
3
2
3
3
3
3
3
3
3
3
3
2
3
3
3
3
3
3
3
3
3
3
3
3
3
2
2
3
3
3
3
3
3
3
3
3
2
2
3
3
3
3
3
3
3
3
3
3
3
3
3
3
3
3
3
2
3
2
3
3
3
3
3
3
3
3
3
3
3
3
3
3
2
2
3
3
3
3
3
3
3
3
3
3
2
2
3
3
3
3
3
3
3
3
2
3
3
3
3
3
3
3
3
3
3
2
2
2
3
3
3
3
3
3
3
2
3
3
3
3
3
3
3
3
3
3
3
2
3
3
3
3
2
2
3
3
3
3
3
2
3
2
3
3
3
3
3
3
3
3
3
3
2
2
3
3
3
3
3
3
3
3
3
2
3
3
2
3
3
3
3
3
3
3
3
3
3
3
3
3
2
3
3
3
3
3
3
2
3
2
3
3
3
3
3
3
3
3
3
3
3
3
3
3
3
3
3
3
3
3
3
3
3
3
3
3
3
3
3
3
3
3
2
3
2
2
2
3
3
3
3
3
3
3
3
3
3
3
2
3
3
3
3
3
3
3
3
2
2
2
2
3
3
3
3
3
3
3
3
2
3
3
3
3
3
3
3
2
3
3
3
3
3
3
3
3
3
3
3
3
3
3
3
3
3
3
2
2
2
3
3
3
3
3
3
3
3
3
3
2
2
2
3
3
3
3
3
3
3
3
3
3
3
3
3
3
2
3
3
3
3
3
3
3
3
3
3
3
3
3
3
3
3
2
2
3
3
3
3
3
3
3
3
3
3
3
3
3
3
3
3
3
3
3
3
3
3
3
3
3
2
3
3
3
3
3
3
3
3
3
3
2
2
3
3
3
3
3
3
3
3
3
3
2
3
3
3
3
3
3
3
3
2
2
3
3
3
3
3
3
3
3
3
2
3
3
3
3
3
3
3
3
2
3
3
3
3
3
3
3
3
3
3
3
3
3
3
3
3
3
3
3
3
3
3
3
3
3
3
3
3
3
3
3
3
3
3
3
3
3
3
3
3
3
3
3
3
3
3
3
3
3
3
2
3
3
3
3
3
3
3
3
2
3
3
3
3
3
3
3
3
3
3
3
3
3
3
3
3
3
3
3
3
3
3
3
3
3
3
3
3
3
3
3
3
2
3
3
3
3
3
3
2
3
3
3
2
3
3
3
3
3
2
3
3
3
3
3
3
3
3
3
3
3
3
3
3
3
3
3
3
3
3
3
3
3
3
3
3
3
3
2
2
3
3
3
3
3
3
SCALARS CharacterAngle float 1
LOOKUP_TABLE default
0.0
73.561612
78.417644
81.861603
75.873688
86.791184
88.125647
88.907603
89.625776
88.876733
87.065139
89.215192
88.016141
73.410712
78.266305
84.618362
78.843961
87.049158
88.330519
89.123462
89.905555
88.930451
87.376390
80.012523
84.447709
64.833003
63.619906
83.389009
80.663295
65.215154
67.729177
69.721467
74.488713
80.491809
72.012930
74.071952
77.010011
79.542914
82.280905
85.098888
87.456637
89.210810
89.203745
87.240424
84.747461
81.882672
78.554195
77.690423
72.435738
76.199824
73.702971
71.112548
68.878060
68.878060
67.107490
89.087826
89.205123
80.253290
85.764514
64.539960
63.382572
67.187326
69.511799
71.625347
74.340192
77.198071
79.736225
81.981801
84.211971
86.444025
88.339930
89.879432
88.880402
87.552392
85.757143
83.550363
81.428769
79.293938
76.784035
74.055551
71.514098
69.581098
67.431622
71.761416
73.912871
67.081777
65.424036
82.345082
84.685819
79.391626
79.391626
87.135637
87.940188
87.968496
88.177819
88.640050
89.217031
89.911028
89.845798
89.815706
89.949294
89.966441
89.707471
89.130886
88.588813
88.050074
87.892550
87.818364
87.125896
67.486905
71.111009
84.820339
82.016314
86.599872
88.304458
71.650786
73.703798
81.182823
84.866123
86.214285
87.074201
87.865640
88.443890
88.862962
89.149110
89.663076
89.660656
89.557219
89.871438
89.844063
89.452214
88.937543
88.692295
88.410187
87.717185
86.986686
86.172923
84.793443
81.290460
75.242063
70.622046
87.010430
85.825211
80.836705
84.616953
68.068826
71.993096
85.190921
87.775408
89.441440
89.285983
88.633703
88.200069
87.127979
82.219672
84.721498
88.910916
88.480203
84.298623
80.743622
69.168743
71.440698
75.609064
71.389944
82.856550
82.856550
83.564952
83.564952
86.188176
87.854185
89.258293
89.547922
88.895841
88.248250
87.179858
85.646591
83.107050
83.107050
69.810038
70.539622
68.981453
86.468303
85.671494
74.277934
77.841375
80.547527
85.385178
87.921617
89.057226
89.980012
88.582913
85.852497
83.210067
83.210067
80.785484
78.000623
74.485960
70.743738
77.776897
69.741510
70.013183
88.744163
89.535999
76.350632
79.038177
81.867048
83.740973
85.764891
87.871512
88.973809
89.990703
88.563002
86.240986
84.096867
82.050852
79.542456
77.016673
74.366910
82.058036
68.654914
71.052796
75.347015
70.216430
75.192240
76.473554
65.073701
67.301965
74.197491
71.477022
81.065282
82.618151
84.272985
86.205046
87.899071
89.125403
89.776557
88.417776
86.710520
84.726605
83.026855
85.066038
82.280341
81.502407
79.813536
78.120893
76.667071
84.525432
78.869938
78.802850
84.464518
70.800657
68.444477
77.177481
80.057049
82.035178
83.225746
84.296523
85.461669
86.638396
88.045408
89.663698
88.702053
87.347412
86.129984
85.180809
84.238085
83.456582
82.634020
80.854001
77.023870
71.622968
71.411796
80.202765
80.202765
85.538664
87.986505
89.593843
89.028616
88.239758
87.888861
86.809378
84.708642
79.797473
79.797473
71.411396
71.395898
71.460172
77.882609
82.503765
86.336201
87.639665
88.512047
89.594046
88.911232
88.174426
87.821459
86.913765
85.257712
83.511583
78.945002
59.771443
60.426472
89.605811
89.605811
60.159260
61.558885
75.308051
63.807756
67.434696
71.440855
75.854819
80.027464
84.034560
87.705059
88.739034
84.882837
80.729798
76.334883
71.772408
67.640037
64.156473
73.641451
77.701477
61.677103
60.190408
83.681432
86.444575
59.771040
60.348659
87.726240
88.977758
60.033803
61.700295
64.331088
67.456386
71.447215
75.688860
79.763551
83.841829
87.813569
88.411115
84.433166
80.208548
76.098239
71.770294
67.691842
64.561963
61.816346
60.112515
86.691413
75.036650
75.064446
88.041689
89.354549
80.541656
84.790753
87.843108
89.656668
88.837373
68.041629
68.041629
71.469088
75.354842
85.399648
81.214905
88.683049
89.090501
71.622176
72.314139
87.925683
88.930129
79.712876
85.015926
87.829999
89.699970
88.700036
87.247120
84.487966
80.442936
83.509640
85.219864
71.655365
76.505862
70.186624
77.529664
83.531307
85.908574
87.657100
88.778886
89.630670
89.564829
88.725772
87.556442
85.448846
83.130476
82.764372
72.787709
71.759213
89.108638
89.635759
81.716754
85.288455
86.030072
81.203842
87.284120
88.608832
89.689603
89.484611
88.490722
86.741415
73.001106
85.176898
81.593254
72.586012
79.275032
73.653515
72.466277
87.495142
88.248717
82.717206
87.174516
88.902953
89.872412
88.931502
88.168314
86.812119
83.083105
74.298281
73.922399
83.609860
78.104515
82.854721
86.868378
88.809695
87.485500
85.327450
89.900320
84.489181
86.575296
79.775639
85.327052
86.237885
79.912562
83.668371
75.716927
73.662332
83.431455
87.159255
88.673453
89.485113
89.805641
89.890012
89.447946
88.669669
87.096466
83.280462
75.554283
73.432483
87.612631
85.749412
82.794381
86.477728
86.358872
83.403236
84.907046
70.695736
74.570714
89.888969
89.643657
86.733983
84.411867
69.480519
71.767971
73.356499
71.234519
86.636505
82.870966
74.987862
73.798048
68.153366
72.739668
76.419752
76.398868
83.005024
86.347618
88.787339
89.670334
86.299622
86.898422
88.248052
82.511115
80.792326
78.683231
76.244579
87.090114
89.130064
68.336110
69.639920
71.242021
73.218154
75.760801
79.661130
83.126253
86.270293
88.817044
89.163385
86.495511
83.279304
79.510543
76.551840
69.409278
67.551967
76.919781
80.811350
67.239285
69.113628
88.376091
89.884730
70.756950
77.739854
89.904517
89.907234
89.950290
89.962862
89.909356
89.916773
85.381595
86.058051
89.866417
88.335992
81.353683
76.092006
76.813674
80.744859
75.364035
81.197449
89.043278
89.828094
89.744144
89.871132
89.917525
89.978283
89.946478
89.792894
89.867115
89.050194
78.500456
72.932264
74.583227
72.208459
82.026473
86.443358
88.125505
88.976932
89.653269
89.693980
89.026233
88.201781
86.580543
82.225026
74.728290
72.290720
85.274751
85.274751
81.271493
85.158604
87.368223
88.767328
87.570296
88.449241
89.436875
89.733141
88.624959
89.592886
88.997156
87.435681
85.143246
81.154372
89.131452
89.131452
74.675418
75.504581
86.678529
85.885854
84.641043
86.672828
88.422488
89.970486
87.241261
84.726371
87.678412
85.315305
72.696854
76.871565
81.502407
84.399491
86.998760
88.537665
89.905691
87.555624
84.127755
70.884609
77.990401
71.475601
75.762859
80.369917
83.921828
86.449196
86.449196
85.732023
87.989428
89.639250
89.303379
88.880638
88.504468
87.160651
71.032490
76.314477
80.145490
78.854431
75.786843
89.164673
87.679473
88.405393
83.967628
86.733822
88.171898
89.557058
89.321110
88.896971
88.277786
87.331955
86.184696
83.704997
89.918158
88.865823
73.252743
76.877988
70.526988
76.977613
80.848478
83.045398
84.742997
86.580594
88.589693
89.856537
89.158289
88.162662
86.294352
84.568682
82.994921
80.844388
76.998107
70.517618
67.914072
78.676431
80.982598
72.094210
77.716202
80.760737
84.365532
83.537999
85.964810
88.505648
89.856679
89.438705
87.751432
68.419083
72.692554
88.023845
87.202576
77.518175
76.371318
79.120999
72.640391
71.631004
81.378706
86.241362
88.381461
89.734189
89.252389
88.103745
86.130635
81.379939
72.674383
71.721495
88.621242
84.624782
86.480039
64.428731
67.458165
88.327089
89.652778
89.413828
88.127480
86.360157
84.502661
70.688266
71.367691
73.918398
79.606498
79.110639
85.300511
69.336282
71.518408
87.479624
88.961046
89.958075
89.391999
89.163899
89.122528
81.157763
83.848639
84.715701
82.389592
86.636233
88.249405
88.471920
89.146814
86.359780
87.776893
72.345913
76.916193
89.924019
89.924417
89.726587
89.367595
89.309518
89.316830
86.223081
87.446137
87.764510
86.152320
85.372518
79.877595
74.668654
69.123210
83.100294
86.067558
88.048172
89.748566
89.040977
88.687558
88.179189
87.249938
85.550450
81.737235
75.096893
72.876706
71.069902
78.076130
78.741943
83.764585
86.964696
87.073252
86.114367
89.093859
89.947739
89.351529
88.078878
70.933789
76.147685
86.213519
87.276705
83.718415
80.629540
89.900320
71.628804
74.435178
89.179777
88.526919
79.250177
83.839878
86.969100
75.957550
73.679163
89.099935
87.842216
87.495142
85.868756
83.196854
78.992178
87.370640
71.365442
74.435340
81.899200
85.908603
88.090566
89.887261
88.606083
88.198865
87.718804
86.718147
85.119734
81.592764
73.780069
74.858258
75.908522
71.550810
74.258875
64.333483
66.136330
88.514669
89.338749
89.733616
89.893207
89.381983
88.496037
87.641852
89.241259
71.051407
74.269794
74.925979
73.721341
85.745171
87.955859
83.162875
87.139372
88.510418
89.328055
89.851108
89.779059
89.316626
88.533893
87.173259
83.200462
80.577378
76.463419
62.169555
62.180237
70.754483
64.669066
72.084515
77.697176
67.940171
70.610008
74.469119
77.765528
81.022596
84.180472
86.919578
89.751608
86.742365
82.964915
79.306991
75.490522
71.618081
83.600680
80.503503
67.971027
65.129582
64.331926
65.022775
61.978622
62.417147
63.342992
65.433054
67.791814
70.602185
74.139201
77.620491
80.784098
84.133310
87.275850
89.633932
85.946448
82.384485
78.946358
75.342163
71.642874
68.524988
66.061824
63.730148
70.070533
70.662369
73.985958
81.332277
85.105243
83.035722
85.733724
87.967125
89.984599
88.479487
88.032555
87.946652
86.735310
85.102708
86.756424
88.792050
73.742875
79.872547
87.835868
81.363537
84.654479
87.932123
89.636920
89.093819
88.590957
88.231053
86.612897
85.092078
83.928228
80.857999
72.121318
73.956577
68.075091
73.264616
85.865284
88.273876
80.302209
80.302209
83.257861
85.492707
87.298806
88.292980
89.158598
89.054953
86.748563
84.162191
80.902707
80.902707
73.505026
86.182183
81.318488
67.990476
88.717281
86.788616
78.136417
81.690761
83.971629
73.074610
85.560392
87.211507
88.196348
89.229616
88.905009
86.575296
82.858667
78.509691
86.612897
73.031312
83.178544
77.592964
88.364290
89.292343
89.752361
88.633431
75.817302
84.314413
83.097651
84.322019
82.264534
72.932318
80.955343
85.524731
87.394840
88.510417
89.467033
89.601493
88.600738
87.508753
85.653799
81.095859
71.492817
72.334424
77.143541
88.407874
84.529999
86.801233
88.683514
89.553280
88.578235
87.510092
85.949516
76.170748
83.919091
81.729740
80.359262
78.260630
87.609338
88.029750
68.660066
71.886427
79.104248
82.023114
84.614842
86.697013
88.664446
89.525956
88.444821
87.335885
85.765312
83.917446
81.524078
78.115142
76.891107
71.559284
76.407640
73.764388
84.264650
87.876242
89.140651
89.714558
89.691823
89.183879
89.123291
88.731164
87.946429
86.544519
82.420998
74.030666
73.792267
74.831151
82.329868
86.276655
84.958465
76.450607
84.810186
82.996143
89.507540
89.736782
89.156900
71.761048
75.983475
84.501294
82.989921
87.298560
86.089248
82.158864
80.760488
77.988337
69.569144
74.730691
86.599748
88.520709
89.205702
89.227557
89.518169
89.882173
88.896410
87.190093
88.870956
87.578250
73.218957
77.947918
76.628971
86.375345
87.764706
76.480392
88.830839
89.274320
89.716616
83.782370