# vtk DataFile Version 3.0
Dislocation network (FCC crystal) exported from OpenDiS
ASCII
DATASET UNSTRUCTURED_GRID
POINTS 3824 FLOAT
0.00000000e+00 0.00000000e+00 0.00000000e+00
1.95620000e+04 0.00000000e+00 0.00000000e+00
0.00000000e+00 1.95620000e+04 0.00000000e+00
0.00000000e+00 0.00000000e+00 1.95620000e+04
1.95620000e+04 1.95620000e+04 0.00000000e+00
1.95620000e+04 0.00000000e+00 1.95620000e+04
0.00000000e+00 1.95620000e+04 1.95620000e+04
1.95620000e+04 1.95620000e+04 1.95620000e+04
2.20595102e+03 6.16383275e+03 1.26047597e+04
2.30495585e+03 6.13428848e+03 1.26742202e+04
2.20595102e+03 6.16383275e+03 1.26047597e+04
2.30614370e+03 6.19367779e+03 1.25344121e+04
2.30495585e+03 6.13428848e+03 1.26742202e+04
2.44660998e+03 6.08015560e+03 1.27617415e+04
2.44660998e+03 6.08015560e+03 1.27617415e+04
2.57083455e+03 6.02500157e+03 1.28308120e+04
2.57083455e+03 6.02500157e+03 1.28308120e+04
2.69449423e+03 5.96643280e+03 1.28959029e+04
2.69449423e+03 5.96643280e+03 1.28959029e+04
2.81694517e+03 6.02680910e+03 1.28338283e+04
2.81694517e+03 6.02680910e+03 1.28338283e+04
2.94208411e+03 6.08356827e+03 1.27654485e+04
2.94208411e+03 6.08356827e+03 1.27654485e+04
3.08461073e+03 6.13849057e+03 1.26778442e+04
3.08461073e+03 6.13849057e+03 1.26778442e+04
3.18303743e+03 6.16770989e+03 1.26086368e+04
3.18303743e+03 6.16770989e+03 1.26086368e+04
3.08263152e+03 6.19724402e+03 1.25377650e+04
3.08263152e+03 6.19724402e+03 1.25377650e+04
2.94163777e+03 6.25119466e+03 1.24507219e+04
2.94163777e+03 6.25119466e+03 1.24507219e+04
2.81756972e+03 6.30684322e+03 1.23823025e+04
2.81756972e+03 6.30684322e+03 1.23823025e+04
2.69449423e+03 6.36582648e+03 1.23182102e+04
2.69449423e+03 6.36582648e+03 1.23182102e+04
2.57210129e+03 6.30549840e+03 1.23802751e+04
2.57210129e+03 6.30549840e+03 1.23802751e+04
2.44765260e+03 6.24862719e+03 1.24478526e+04
2.44765260e+03 6.24862719e+03 1.24478526e+04
2.30614370e+03 6.19367779e+03 1.25344121e+04
1.68050128e+04 1.68317218e+04 1.31603051e+04
1.67186557e+04 1.68088220e+04 1.30968478e+04
1.68050128e+04 1.68317218e+04 1.31603051e+04
1.67158257e+04 1.68553189e+04 1.32258951e+04
1.67186557e+04 1.68088220e+04 1.30968478e+04
1.65816617e+04 1.67639147e+04 1.30047610e+04
1.65816617e+04 1.67639147e+04 1.30047610e+04
1.64618733e+04 1.67168205e+04 1.29320669e+04
1.64618733e+04 1.67168205e+04 1.29320669e+04
1.63460346e+04 1.66684015e+04 1.28646472e+04
1.63460346e+04 1.66684015e+04 1.28646472e+04
1.62295739e+04 1.66175799e+04 1.27990081e+04
1.62295739e+04 1.66175799e+04 1.27990081e+04
1.61132807e+04 1.65652693e+04 1.27350254e+04
1.61132807e+04 1.65652693e+04 1.27350254e+04
1.59974296e+04 1.65117380e+04 1.26727056e+04
1.59974296e+04 1.65117380e+04 1.26727056e+04
1.58818708e+04 1.64570097e+04 1.26118751e+04
1.58818708e+04 1.64570097e+04 1.26118751e+04
1.57662656e+04 1.64013723e+04 1.25519074e+04
1.57662656e+04 1.64013723e+04 1.25519074e+04
1.56506575e+04 1.63447553e+04 1.24929163e+04
1.56506575e+04 1.63447553e+04 1.24929163e+04
1.55348519e+04 1.62868799e+04 1.24349861e+04
1.55348519e+04 1.62868799e+04 1.24349861e+04
1.54204365e+04 1.62283314e+04 1.23791192e+04
1.54204365e+04 1.62283314e+04 1.23791192e+04
1.53036033e+04 1.62846542e+04 1.24396296e+04
1.53036033e+04 1.62846542e+04 1.24396296e+04
1.51882950e+04 1.63401680e+04 1.24994241e+04
1.51882950e+04 1.63401680e+04 1.24994241e+04
1.50731185e+04 1.63951091e+04 1.25596595e+04
1.50731185e+04 1.63951091e+04 1.25596595e+04
1.49578447e+04 1.64496550e+04 1.26203875e+04
1.49578447e+04 1.64496550e+04 1.26203875e+04
1.48426578e+04 1.65036514e+04 1.26815780e+04
1.48426578e+04 1.65036514e+04 1.26815780e+04
1.47269324e+04 1.65567730e+04 1.27441817e+04
1.47269324e+04 1.65567730e+04 1.27441817e+04
1.46109287e+04 1.66089367e+04 1.28080218e+04
1.46109287e+04 1.66089367e+04 1.28080218e+04
1.44948935e+04 1.66598018e+04 1.28731918e+04
1.44948935e+04 1.66598018e+04 1.28731918e+04
1.43794888e+04 1.67084049e+04 1.29399935e+04
1.43794888e+04 1.67084049e+04 1.29399935e+04
1.42611488e+04 1.67554834e+04 1.30112550e+04
1.42611488e+04 1.67554834e+04 1.30112550e+04
1.41264858e+04 1.68007041e+04 1.31006972e+04
1.41264858e+04 1.68007041e+04 1.31006972e+04
1.40358603e+04 1.68250663e+04 1.31669606e+04
1.40358603e+04 1.68250663e+04 1.31669606e+04
1.41275251e+04 1.68497280e+04 1.32339637e+04
1.41275251e+04 1.68497280e+04 1.32339637e+04
1.42620955e+04 1.68952189e+04 1.33230433e+04
1.42620955e+04 1.68952189e+04 1.33230433e+04
1.43799354e+04 1.69423241e+04 1.33937779e+04
1.43799354e+04 1.69423241e+04 1.33937779e+04
1.44954696e+04 1.69916026e+04 1.34600336e+04
1.44954696e+04 1.69916026e+04 1.34600336e+04
1.46117420e+04 1.70434375e+04 1.35244711e+04
1.46117420e+04 1.70434375e+04 1.35244711e+04
1.47277914e+04 1.70966186e+04 1.35873395e+04
1.47277914e+04 1.70966186e+04 1.35873395e+04
1.48432419e+04 1.71506469e+04 1.36487617e+04
1.48432419e+04 1.71506469e+04 1.36487617e+04
1.49585114e+04 1.72054366e+04 1.37092415e+04
1.49585114e+04 1.72054366e+04 1.37092415e+04
1.50738130e+04 1.72608119e+04 1.37691678e+04
1.50738130e+04 1.72608119e+04 1.37691678e+04
1.51892848e+04 1.73171138e+04 1.38283376e+04
1.51892848e+04 1.73171138e+04 1.38283376e+04
1.53045083e+04 1.73742586e+04 1.38864163e+04
1.53045083e+04 1.73742586e+04 1.38864163e+04
1.54204365e+04 1.74326113e+04 1.39439919e+04
1.54204365e+04 1.74326113e+04 1.39439919e+04
1.55360124e+04 1.73755983e+04 1.38854290e+04
1.55360124e+04 1.73755983e+04 1.38854290e+04
1.56511454e+04 1.73193249e+04 1.38265694e+04
1.56511454e+04 1.73193249e+04 1.38265694e+04
1.57666316e+04 1.72636757e+04 1.37667325e+04
1.57666316e+04 1.72636757e+04 1.37667325e+04
1.58818626e+04 1.72089509e+04 1.37062262e+04
1.58818626e+04 1.72089509e+04 1.37062262e+04
1.59971124e+04 1.71547477e+04 1.36451796e+04
1.59971124e+04 1.71547477e+04 1.36451796e+04
1.61126993e+04 1.71011495e+04 1.35831909e+04
1.61126993e+04 1.71011495e+04 1.35831909e+04
1.62286907e+04 1.70484351e+04 1.35199140e+04
1.62286907e+04 1.70484351e+04 1.35199140e+04
1.63448873e+04 1.69970032e+04 1.34551492e+04
1.63448873e+04 1.69970032e+04 1.34551492e+04
1.64604521e+04 1.69479809e+04 1.33886068e+04
1.64604521e+04 1.69479809e+04 1.33886068e+04
1.65791969e+04 1.69008230e+04 1.33170199e+04
1.65791969e+04 1.69008230e+04 1.33170199e+04
1.67158257e+04 1.68553189e+04 1.32258951e+04
9.78772267e+03 1.58658571e+04 3.67440316e+03
9.72089586e+03 1.57688547e+04 3.70457871e+03
9.78772267e+03 1.58658571e+04 3.67440316e+03
9.85423589e+03 1.57692409e+04 3.64430022e+03
9.72089586e+03 1.57688547e+04 3.70457871e+03
9.64046932e+03 1.56352028e+04 3.75780406e+03
9.64046932e+03 1.56352028e+04 3.75780406e+03
9.57596347e+03 1.55176834e+04 3.81081758e+03
9.57596347e+03 1.55176834e+04 3.81081758e+03
9.51442682e+03 1.54013154e+04 3.86564900e+03
9.51442682e+03 1.54013154e+04 3.86564900e+03
9.45434867e+03 1.52850422e+04 3.92184405e+03
9.45434867e+03 1.52850422e+04 3.92184405e+03
9.39480975e+03 1.51688637e+04 3.97848360e+03
9.39480975e+03 1.51688637e+04 3.97848360e+03
9.33538895e+03 1.50523492e+04 4.03557734e+03
9.33538895e+03 1.50523492e+04 4.03557734e+03
9.27648356e+03 1.49364140e+04 4.09260711e+03
9.27648356e+03 1.49364140e+04 4.09260711e+03
9.21753487e+03 1.48204700e+04 4.14960246e+03
9.21753487e+03 1.48204700e+04 4.14960246e+03
9.15870417e+03 1.47043785e+04 4.20686321e+03
9.15870417e+03 1.47043785e+04 4.20686321e+03
9.10012096e+03 1.45884973e+04 4.26416118e+03
9.10012096e+03 1.45884973e+04 4.26416118e+03
9.04102393e+03 1.44717355e+04 4.32182602e+03
9.04102393e+03 1.44717355e+04 4.32182602e+03
9.09866434e+03 1.43551983e+04 4.26292930e+03
9.09866434e+03 1.43551983e+04 4.26292930e+03
9.15601205e+03 1.42395927e+04 4.20467140e+03
9.15601205e+03 1.42395927e+04 4.20467140e+03
9.21391331e+03 1.41233763e+04 4.14635629e+03
9.21391331e+03 1.41233763e+04 4.14635629e+03
9.27195370e+03 1.40072146e+04 4.08823495e+03
9.27195370e+03 1.40072146e+04 4.08823495e+03
9.32998249e+03 1.38911783e+04 4.03022746e+03
9.32998249e+03 1.38911783e+04 4.03022746e+03
9.38840098e+03 1.37749655e+04 3.97243314e+03
9.38840098e+03 1.37749655e+04 3.97243314e+03
9.44716282e+03 1.36587048e+04 3.91493422e+03
9.44716282e+03 1.36587048e+04 3.91493422e+03
9.50669109e+03 1.35422543e+04 3.85801198e+03
9.50669109e+03 1.35422543e+04 3.85801198e+03
9.56779649e+03 1.34257134e+04 3.80257653e+03
9.56779649e+03 1.34257134e+04 3.80257653e+03
9.63158400e+03 1.33085739e+04 3.74922454e+03
9.63158400e+03 1.33085739e+04 3.74922454e+03
9.70899851e+03 1.31785388e+04 3.69660397e+03
9.70899851e+03 1.31785388e+04 3.69660397e+03
9.77812360e+03 1.30776139e+04 3.66480409e+03
9.77812360e+03 1.30776139e+04 3.66480409e+03
9.84752465e+03 1.31788793e+04 3.63293974e+03
9.84752465e+03 1.31788793e+04 3.63293974e+03
9.92494355e+03 1.33086144e+04 3.58062351e+03
9.92494355e+03 1.33086144e+04 3.58062351e+03
9.98899072e+03 1.34256659e+04 3.52761918e+03
9.98899072e+03 1.34256659e+04 3.52761918e+03
1.00503257e+04 1.35418032e+04 3.47281682e+03
1.00503257e+04 1.35418032e+04 3.47281682e+03
1.01104204e+04 1.36581123e+04 3.41660248e+03
1.01104204e+04 1.36581123e+04 3.41660248e+03
1.01701603e+04 1.37745928e+04 3.35986193e+03
1.01701603e+04 1.37745928e+04 3.35986193e+03
1.02294952e+04 1.38906506e+04 3.30313891e+03
1.02294952e+04 1.38906506e+04 3.30313891e+03
1.02887155e+04 1.40068401e+04 3.24616979e+03
1.02887155e+04 1.40068401e+04 3.24616979e+03
1.03479447e+04 1.41229240e+04 3.18931501e+03
1.03479447e+04 1.41229240e+04 3.18931501e+03
1.04069308e+04 1.42387050e+04 3.13252006e+03
1.04069308e+04 1.42387050e+04 3.13252006e+03
1.04659451e+04 1.43549064e+04 3.07533302e+03
1.04659451e+04 1.43549064e+04 3.07533302e+03
1.05253355e+04 1.44717355e+04 3.01789434e+03
1.05253355e+04 1.44717355e+04 3.01789434e+03
1.04683049e+04 1.45876030e+04 3.07673133e+03
1.04683049e+04 1.45876030e+04 3.07673133e+03
1.04107921e+04 1.47038405e+04 3.13545607e+03
1.04107921e+04 1.47038405e+04 3.13545607e+03
1.03531827e+04 1.48198549e+04 3.19386102e+03
1.03531827e+04 1.48198549e+04 3.19386102e+03
1.02952999e+04 1.49359769e+04 3.25210025e+03
1.02952999e+04 1.49359769e+04 3.25210025e+03
[...]
CELL_DATA 1909
SCALARS SlipSystemID int 1
LOOKUP_TABLE default
0
10
7
10
10
10
7
7
7
7
10
10
10
10
7
7
7
4
1
4
4
4
4
4
4
4
4
4
4
4
1
1
1
1
1
1
1
1
1
1
1
1
4
4
4
4
4
4
4
4
4
4
4
4
1
1
1
1
1
1
1
1
1
1
1
5
11
5
5
5
5
5
5
5
5
5
5
5
11
11
11
11
11
11
11
11
11
11
11
11
5
5
5
5
5
5
5
5
5
5
5
5
11
11
11
11
11
11
11
11
11
11
11
2
8
2
2
2
2
2
2
8
8
8
8
8
8
8
2
2
2
2
2
2
2
8
8
8
8
8
8
6
9
6
6
6
6
6
6
6
9
9
9
9
9
9
9
9
6
6
6
6
6
6
6
6
9
9
9
9
9
9
9
3
12
3
3
3
3
3
3
3
3
3
12
12
12
12
12
12
12
12
12
12
3
3
3
3
3
3
3
3
3
3
12
12
12
12
12
12
12
12
12
10
7
10
10
10
10
10
7
7
7
7
7
7
10
10
10
10
10
10
7
7
7
7
7
4
1
4
4
4
4
4
4
4
4
4
1
1
1
1
1
1
1
1
1
1
4
4
4
4
4
4
4
4
4
4
1
1
1
1
1
1
1
1
1
5
11
5
5
5
5
11
11
11
11
11
5
5
5
5
5
11
11
11
11
2
8
2
2
2
2
2
8
8
8
8
8
8
2
2
2
2
2
2
8
8
8
8
8
6
9
6
6
6
6
9
9
9
9
9
6
6
6
6
6
9
9
9
9
3
12
3
3
3
3
3
12
12
12
12
12
12
3
3
3
3
3
3
12
12
12
12
12
10
7
10
10
10
10
10
7
7
7
7
7
7
10
10
10
10
10
10
7
7
7
7
7
4
1
4
4
4
4
4
1
1
1
1
1
1
4
4
4
4
4
4
1
1
1
1
1
5
11
5
5
5
5
5
11
11
11
11
11
11
5
5
5
5
5
5
11
11
11
11
11
2
8
2
2
2
8
8
8
8
2
2
2
2
8
8
8
6
9
6
6
6
6
6
6
9
9
9
9
9
9
9
6
6
6
6
6
6
6
9
9
9
9
9
9
3
12
3
3
3
3
3
3
3
12
12
12
12
12
12
12
12
3
3
3
3
3
3
3
3
12
12
12
12
12
12
12
10
7
10
10
10
10
7
7
7
7
7
10
10
10
10
10
7
7
7
7
4
1
4
4
4
4
4
4
1
1
1
1
1
1
1
4
4
4
4
4
4
4
1
1
1
1
1
1
5
11
5
5
5
5
5
11
11
11
11
11
11
5
5
5
5
5
5
11
11
11
11
11
2
8
2
2
2
2
2
8
8
8
8
8
8
2
2
2
2
2
2
8
8
8
8
8
6
9
6
6
6
6
6
9
9
9
9
9
9
6
6
6
6
6
6
9
9
9
9
9
3
12
3
3
3
3
3
3
3
3
3
12
12
12
12
12
12
12
12
12
12
3
3
3
3
3
3
3
3
3
3
12
12
12
12
12
12
12
12
12
10
7
10
10
10
10
10
10
7
7
7
7
7
7
7
10
10
10
10
10
10
10
7
7
7
7
7
7
4
1
4
4
4
4
4
4
1
1
1
1
1
1
1
4
4
4
4
4
4
4
1
1
1
1
1
1
5
11
5
5
5
5
5
11
11
11
11
11
11
5
5
5
5
5
5
11
11
11
11
11
2
8
2
2
2
2
2
2
8
8
8
8
8
8
8
2
2
2
2
2
2
2
8
8
8
8
8
8
6
9
6
6
6
6
6
9
9
9
9
9
9
6
6
6
6
6
6
9
9
9
9
9
3
12
3
3
3
3
12
12
12
12
12
3
3
3
3
3
12
12
12
12
10
7
10
10
10
10
7
7
7
7
7
10
10
10
10
10
7
7
7
7
4
1
4
4
4
4
1
1
1
1
1
4
4
4
4
4
1
1
1
1
5
11
5
5
5
5
11
11
11
11
11
5
5
5
5
5
11
11
11
11
2
8
2
2
2
2
2
2
2
8
8
8
8
8
8
8
8
2
2
2
2
2
2
2
2
8
8
8
8
8
8
8
6
9
6
6
6
6
9
9
9
9
9
6
6
6
6
6
9
9
9
9
3
12
3
3
3
3
3
12
12
12
12
12
12
3
3
3
3
3
3
12
12
12
12
12
10
7
10
10
10
10
10
10
7
7
7
7
7
7
7
10
10
10
10
10
10
10
7
7
7
7
7
7
4
1
4
4
4
4
4
1
1
1
1
1
1
4
4
4
4
4
4
1
1
1
1
1
5
11
5
5
5
5
5
5
5
11
11
11
11
11
11
11
11
5
5
5
5
5
5
5
5
11
11
11
11
11
11
11
2
8
2
2
2
2
2
8
8
8
8
8
8
2
2
2
2
2
2
8
8
8
8
8
6
9
6
6
6
6
6
9
9
9
9
9
9
6
6
6
6
6
6
9
9
9
9
9
3
12
3
3
3
3
3
12
12
12
12
12
12
3
3
3
3
3
3
12
12
12
12
12
10
7
10
10
10
10
10
10
7
7
7
7
7
7
7
10
10
10
10
10
10
10
7
7
7
7
7
7
4
1
4
4
4
4
4
1
1
1
1
1
1
4
4
4
4
4
4
1
1
1
1
1
5
11
5
5
5
5
5
5
5
11
11
11
11
11
11
11
11
5
5
5
5
5
5
5
5
11
11
11
11
11
11
11
2
8
2
2
2
2
8
8
8
8
8
2
2
2
2
2
8
8
8
8
6
9
6
6
6
6
9
9
9
9
9
6
6
6
6
6
9
9
9
9
3
12
3
3
3
3
3
12
12
12
12
12
12
3
3
3
3
3
3
12
12
12
12
12
10
7
10
10
10
10
7
7
7
7
7
10
10
10
10
10
7
7
7
7
4
1
4
4
4
4
1
1
1
1
1
4
4
4
4
4
1
1
1
1
5
11
5
5
5
5
5
11
11
11
11
11
11
5
5
5
5
5
5
11
11
11
11
11
2
8
2
2
2
2
2
8
8
8
8
8
8
2
2
2
2
2
2
8
8
8
8
8
6
9
6
6
6
6
6
6
9
9
9
9
9
9
9
6
6
6
6
6
6
6
9
9
9
9
9
9
3
12
3
3
3
3
3
12
12
12
12
12
12
3
3
3
3
3
3
12
12
12
12
12
10
7
10
10
10
10
7
7
7
7
7
10
10
10
10
10
7
7
7
7
4
1
4
4
4
4
4
1
1
1
1
1
1
4
4
4
4
4
4
1
1
1
1
1
5
11
5
5
5
5
11
11
11
11
11
5
5
5
5
5
11
11
11
11
2
8
2
2
2
2
8
8
8
8
8
2
2
2
2
2
8
8
8
8
6
9
6
6
6
6
9
9
9
9
9
6
6
6
6
6
9
9
9
9
3
12
3
3
3
3
3
12
12
12
12
12
12
3
3
3
3
3
3
12
12
12
12
12
10
7
10
10
10
10
10
10
7
7
7
7
7
7
7
10
10
10
10
10
10
10
7
7
7
7
7
7
4
1
4
4
4
1
1
1
1
4
4
4
4
1
1
1
5
11
5
5
5
5
5
5
11
11
11
11
11
11
11
5
5
5
5
5
5
5
11
11
11
11
11
11
2
8
2
2
2
2
2
2
2
2
8
8
8
8
8
8
8
8
8
2
2
2
2
2
2
2
2
2
8
8
8
8
8
8
8
8
6
9
6
6
6
6
9
9
9
9
9
6
6
6
6
6
9
9
9
9
3
12
3
3
3
3
3
12
12
12
12
12
12
3
3
3
3
3
3
12
12
12
12
12
10
7
10
10
10
10
10
10
10
7
7
7
7
7
7
7
7
10
10
10
10
10
10
10
10
7
7
7
7
7
7
7
4
1
4
4
4
4
4
4
4
4
1
1
1
1
1
1
1
1
1
4
4
4
4
4
4
4
4
4
1
1
1
1
1
1
1
1
5
11
5
5
5
5
5
11
11
11
11
11
11
5
5
5
5
5
5
11
11
11
11
11
2
8
2
2
2
2
8
8
8
8
8
2
2
2
2
2
8
8
8
8
6
9
6
6
6
6
9
9
9
9
9
6
6
6
6
6
9
9
9
9
3
12
3
3
3
3
12
12
12
12
12
3
3
3
3
3
12
12
12
12
10
7
10
10
10
10
10
10
10
7
7
7
7
7
7
7
7
10
10
10
10
10
10
10
10
7
7
7
7
7
7
7
4
1
4
4
4
4
1
1
1
1
1
4
4
4
4
4
1
1
1
1
5
11
5
5
5
5
11
11
11
11
11
5
5
5
5
5
11
11
11
11
SCALARS DislocationType int 1
LOOKUP_TABLE default
0
3
3
3
3
3
3
3
3
3
3
3
3
3
3
3
3
2
2
3
3
3
3
3
3
3
3
3
3
3
3
3
3
3
3
3
3
3
3
3
3
3
3
3
3
3
3
3
3
3
3
3
3
3
3
3
3
3
3
3
3
3
3
3
3
3
3
3
3
3
3
3
3
3
3
3
3
3
3
3
3
3
3
3
3
3
3
3
3
3
3
3
3
3
3
3
3
3
3
3
3
3
3
3
3
3
3
3
3
3
3
3
3
3
3
3
3
3
3
3
3
3
3
3
3
3
3
3
3
3
3
3
3
3
3
3
3
3
3
3
3
3
3
3
3
3
3
3
3
3
3
3
3
3
3
3
3
3
3
3
3
3
3
3
3
3
3
3
3
3
3
3
3
2
2
3
3
3
3
3
3
3
3
3
3
3
3
3
3
3
3
3
3
2
2
3
3
3
3
3
3
3
3
3
3
3
3
3
3
3
3
3
3
3
3
3
3
3
3
3
3
3
3
3
3
3
3
3
3
3
3
3
3
3
3
3
3
3
3
3
3
3
3
3
3
3
3
3
3
3
3
3
3
3
3
3
3
3
3
3
3
3
3
3
3
3
3
3
3
3
3
3
3
3
3
3
3
3
3
3
3
3
3
3
3
3
3
3
3
3
3
3
3
3
3
3
3
3
3
3
3
3
3
3
3
3
3
3
3
3
3
3
3
3
3
3
3
3
3
3
3
3
3
3
3
3
3
3
3
3
3
3
3
3
3
3
3
3
3
3
3
3
3
3
3
3
3
3
3
3
3
3
3
3
3
3
3
3
3
3
3
3
3
3
3
3
3
3
3
3
3
3
3
3
3
3
3
3
3
3
3
3
3
3
3
3
3
3
3
3
3
3
3
3
3
3
3
3
3
3
3
3
3
3
3
3
3
3
3
3
3
3
3
3
3
3
3
3
3
3
3
3
3
3
3
3
3
3
3
3
3
3
3
3
3
3
3
3
3
3
3
3
3
3
3
3
3
3
3
3
3
3
3
3
3
3
3
3
3
3
3
3
3
3
3
3
3
3
3
3
3
3
3
3
3
3
3
3
3
3
3
3
3
3
3
3
3
3
3
3
3
3
3
3
3
3
3
3
3
3
3
3
3
3
3
3
3
3
3
3
3
3
3
3
3
3
3
3
3
3
3
3
3
3
3
3
3
3
3
3
3
3
3
3
3
3
3
3
3
3
3
3
3
3
3
3
3
3
3
3
3
3
3
3
3
3
3
3
3
3
3
3
3
3
3
3
3
3
3
3
3
3
3
3
3
3
3
3
3
3
3
3
3
3
3
3
3
3
3
3
3
3
3
3
3
3
3
3
3
3
3
3
3
3
3
3
3
3
3
3
3
3
3
3
3
3
3
3
3
3
3
3
3
3
3
3
3
3
3
3
3
3
3
3
3
3
3
3
3
3
3
3
3
3
3
3
3
3
3
3
3
3
3
3
3
3
3
3
3
3
3
3
3
3
3
3
3
3
3
3
3
3
3
3
3
3
3
3
3
3
3
3
3
3
3
3
3
3
3
3
3
3
3
3
3
3
3
3
3
3
3
3
3
3
3
3
3
3
3
3
3
3
3
3
3
3
3
3
3
3
3
3
3
3
3
3
3
3
3
3
3
3
3
3
3
3
3
3
3
3
3
3
3
3
3
3
3
3
3
3
3
3
3
3
3
3
3
3
3
3
3
3
3
3
3
3
3
3
3
3
3
3
3
3
3
3
3
3
3
3
3
3
3
3
3
3
3
3
3
3
3
3
3
3
3
3
3
3
3
3
3
3
3
3
3
3
3
3
3
3
3
3
3
3
3
3
3
3
3
3
3
3
3
3
3
3
3
3
3
3
3
3
3
3
3
3
3
3
3
3
3
3
3
3
3
3
3
3
3
3
3
3
3
3
3
3
3
3
3
3
3
3
3
3
3
3
3
3
3
3
3
3
3
3
3
3
3
3
3
3
3
3
3
3
3
3
3
3
3
3
3
3
3
3
3
3
3
3
3
3
3
3
3
3
3
3
3
3
3
3
3
3
3
3
3
3
3
3
3
3
3
3
3
3
3
3
3
3
3
3
3
3
3
3
3
3
3
3
3
3
3
3
3
3
3
3
3
3
3
3
3
3
3
3
3
3
3
3
3
3
3
3
3
3
3
3
3
3
3
3
3
3
3
3
3
3
3
3
3
3
3
3
3
3
3
3
3
3
3
3
3
3
3
3
3
3
3
3
3
3
3
3
3
3
3
3
3
3
3
3
3
3
3
3
3
3
3
3
3
3
3
3
3
3
3
3
3
3
3
3
3
3
3
3
3
3
3
3
3
3
3
3
3
3
3
3
3
3
3
3
3
3
3
3
3
3
3
3
3
3
3
3
3
3
3
3
3
3
3
3
3
3
3
3
3
3
3
3
3
3
3
3
3
3
3
3
3
3
3
3
3
3
3
3
3
3
3
3
3
3
3
3
3
3
3
3
3
3
3
3
3
3
3
3
3
3
3
3
3
3
3
3
3
3
3
3
3
3
3
3
3
3
3
3
3
3
3
3
3
3
3
3
3
3
3
3
3
3
3
3
3
3
3
3
3
3
3
3
3
3
3
3
3
3
3
3
3
3
3
3
3
3
3
3
3
3
3
3
3
3
3
3
3
3
3
3
3
3
3
3
3
3
3
3
3
3
3
3
3
3
3
3
3
3
3
3
3
3
3
3
3
3
3
3
3
3
3
3
3
3
3
3
3
3
3
3
3
3
3
3
3
3
3
3
3
3
3
3
3
3
3
3
3
3
3
3
3
3
3
3
3
3
3
3
3
3
3
3
3
3
3
3
3
3
3
3
3
3
3
3
3
3
3
3
3
3
3
3
3
3
3
3
3
3
3
3
3
3
3
3
3
3
3
3
3
3
3
3
3
3
3
3
3
3
3
3
3
3
3
3
3
3
3
3
3
3
3
3
3
3
3
3
3
3
3
3
3
3
3
3
3
3
3
3
3
3
3
3
3
3
3
3
3
3
3
3
3
3
3
3
3
3
3
3
3
3
3
3
3
3
3
3
3
3
3
3
3
3
3
3
3
3
3
3
3
3
3
3
3
3
3
3
3
3
3
3
3
3
3
3
3
3
3
3
3
3
3
3
3
3
3
3
3
3
3
3
3
3
3
3
3
3
3
3
3
3
3
3
3
3
3
3
3
3
3
3
3
3
3
3
3
3
3
3
3
3
3
3
3
3
3
3
3
3
3
3
3
3
3
3
3
3
3
3
3
3
3
3
3
3
3
3
3
3
3
3
3
3
3
3
3
3
3
3
3
3
3
3
3
3
3
3
3
3
3
3
3
3
3
3
3
3
3
3
3
3
3
3
3
3
3
3
3
3
3
3
3
3
3
3
3
3
3
3
3
3
3
3
3
3
3
3
3
3
3
3
3
3
3
3
3
3
3
3
3
3
3
3
3
3
3
3
3
3
3
3
3
3
3
3
3
3
3
3
3
3
3
3
3
3
3
3
3
3
3
3
3
3
3
3
3
3
3
3
3
3
3
3
3
3
3
3
3
3
3
3
3
3
3
3
3
3
3
3
3
3
3
3
3
3
3
3
3
3
3
3
3
3
3
3
3
3
3
3
3
3
3
3
3
3
3
3
3
3
3
3
3
3
3
3
3
3
3
3
3
3
3
3
3
3
3
3
3
3
3
3
3
3
3
3
3
3
3
3
3
3
3
3
3
3
3
3
3
3
3
3
3
3
3
3
3
3
3
3
3
3
3
3
3
3
3
3
3
3
3
3
3
3
3
3
3
3
3
3
3
3
3
3
3
3
3
3
3
3
3
3
3
3
3
3
3
3
3
3
3
3
3
3
3
3
3
3
3
3
3
3
3
3
3
3
3
3
3
3
3
3
3
3
3
3
3
3
3
3
3
3
3
3
3
3
3
3
3
3
3
3
3
3
3
3
3
3
3
3
3
3
3
3
3
3
3
3
3
3
3
3
3
3
3
3
3
3
3
3
3
3
3
3
3
3
3
3
3
3
3
3
3
3
3
3
3
3
3
3
3
3
3
3
3
3
3
3
3
3
3
3
3
3
3
3
3
3
3
3
3
3
3
3
3
3
3
3
3
3
3
3
3
3
3
3
3
3
3
3
3
3
3
3
3
3
3
3
3
3
3
3
3
3
3
3
3
3
3
3
3
3
3
3
3
3
3
3
3
3
3
3
3
3
3
3
3
3
3
3
3
3
3
3
3
3
3
3
3
3
3
3
3
3
3
3
3
3
3
3
3
3
3
3
3
SCALARS CharacterAngle float 1
LOOKUP_TABLE default
0.0
76.896415
76.862781
82.250590
86.299334
88.255824
89.541207
86.931104
82.458517
76.799257
76.629034
82.282902
86.598944
88.627092
89.530601
87.156504
82.651249
74.828914
74.792258
78.754293
82.966113
84.590170
85.798747
86.683562
87.492166
88.253738
88.761086
89.320714
89.984340
89.224705
88.814523
88.772156
88.479789
88.226496
87.934884
87.291553
86.674118
85.928748
84.797894
83.271202
79.264501
75.053906
75.067510
79.407468
83.396211
85.150707
86.419189
87.240804
87.882412
88.367498
88.694555
89.178503
89.731876
89.778266
89.556412
89.256974
88.800646
88.340735
88.036563
87.600124
86.990446
86.209824
84.997717
83.226356
79.088437
77.693977
77.725054
83.298254
86.768531
88.094624
88.895394
89.174511
89.339353
89.464845
89.442716
89.552659
89.633115
89.594255
89.643392
89.739559
89.882203
89.976946
89.993927
89.822332
89.640667
89.259756
88.391024
87.055646
83.717944
77.947077
77.920336
83.625776
86.882282
88.139958
88.896496
89.148263
89.255602
89.359087
89.323423
89.373998
89.479834
89.447397
89.484291
89.655085
89.773176
89.898464
89.926725
89.883802
89.597489
89.158490
88.236629
86.868340
83.364798
82.187054
82.230255
86.720410
88.792990
89.248876
89.336285
89.289000
89.044993
89.021312
89.283562
89.495084
89.850326
89.312497
86.512705
81.444042
81.334244
86.258854
88.946340
89.614771
89.803483
89.745956
89.483214
89.283627
89.411839
89.456885
89.731779
89.479200
87.004279
75.150807
75.260987
79.121316
83.353214
85.081224
86.370217
87.266684
88.059540
88.797981
89.564610
89.230536
88.178132
87.086054
85.638691
83.763317
79.359070
75.276301
75.179513
79.066705
83.140369
84.976094
86.331931
87.254095
88.113748
88.765715
89.455636
89.340743
88.193538
87.046599
85.496591
83.505507
79.183879
74.294013
74.363453
78.566579
82.767354
84.337455
85.179257
85.842339
86.566755
87.486456
88.196183
88.358568
88.947412
89.983876
88.910238
87.786098
86.773985
85.795852
84.613327
82.657435
78.026740
73.900539
73.768961
78.216693
82.205181
83.825259
84.812588
85.750753
86.695029
87.542455
88.336691
89.008639
89.815218
89.292529
88.406448
87.507976
86.536771
85.567368
84.540384
82.871598
78.845664
75.785903
75.677638
81.086367
85.843127
88.010676
89.636893
88.735884
87.640352
87.272870
86.274635
84.547061
80.326879
75.490632
75.777285
80.808115
85.572486
87.900005
89.676173
88.522740
87.523018
87.207002
86.090443
84.357641
80.305268
89.416733
89.399164
89.903250
89.891851
89.904079
89.826698
89.855241
89.917934
89.986927
89.958260
89.929923
89.920906
89.962642
89.952704
89.929563
89.845674
89.800929
89.843341
89.841036
89.877256
89.772824
89.792208
89.912219
89.982993
89.939531
89.825719
89.886653
89.949976
89.962200
89.973298
89.985592
89.824994
89.889473
89.919403
89.994996
89.977481
89.918751
89.942867
89.965935
89.912313
78.841005
78.806609
82.448682
87.138225
88.777876
89.883629
89.147425
88.312607
86.840888
82.306018
78.760998
78.847285
82.475391
86.967088
88.586496
89.824445
89.005955
88.121852
86.689145
82.359047
76.611976
76.518761
81.038036
85.320479
87.267125
88.707049
89.858963
89.228012
88.291644
86.964370
85.089316
80.902581
76.497764
76.513747
81.116491
85.588948
87.395812
88.763915
89.888289
89.211541
88.325591
87.068818
85.348957
80.987623
79.831147
79.959570
83.430479
87.755067
89.291869
89.641384
88.932056
88.504115
87.275129
83.287507
79.900067
80.250359
83.414065
87.577552
89.023554
89.878956
89.005356
88.310100
87.103090
83.131714
76.508240
76.513450
81.236619
85.539674
87.356125
88.627455
89.804870
89.163526
88.193905
86.977945
85.224474
80.891508
76.241890
76.352289
80.808233
85.465067
87.566276
89.020424
89.849036
89.061543
88.313962
87.142924
85.241949
80.870390
76.862951
76.891191
82.281390
86.262795
87.684759
88.512066
89.172261
89.989347
88.995466
88.042017
86.477137
82.255813
76.768409
76.742020
82.028019
86.093558
87.699963
88.654854
89.383675
89.925909
89.082464
88.018658
86.360399
82.304864
75.984288
75.981881
81.260688
85.475131
87.350560
88.570880
89.485211
89.582050
88.631452
87.418385
85.526293
81.331946
76.048330
76.037997
81.501724
85.599233
87.247447
88.346663
89.345018
89.563831
88.480389
87.316732
85.633034
81.468257
77.076820
77.111420
81.706687
85.780157
87.502673
88.745587
89.611020
89.707674
88.835270
87.603825
85.899709
81.841150
77.232326
77.214695
81.794155
86.020456
87.694674
88.799060
89.496407
89.830671
89.009909
87.836869
86.102696
81.777720
78.014870
77.957274
83.042903
86.931070
88.364931
89.828712
87.603379
83.304819
78.022176
77.801767
83.202594
87.205825
88.690437
89.886185
87.925687
83.547630
76.006971
75.859692
80.736651
84.891873
86.958759
88.526729
89.653673
89.271532
88.773945
88.410105
87.540157
86.250305
84.392516
80.448223
75.908327
75.950910
80.727215
85.078447
87.036463
88.472721
89.591557
89.331749
88.601743
88.280952
87.596910
86.362838
84.560404
80.511642
76.396119
76.535987
80.483087
84.794045
86.338590
87.305663
88.116497
88.957789
89.876068
89.398963
88.641293
87.916262
87.174675
86.262538
84.754685
80.378208
76.437878
76.597378
80.019178
84.616710
86.451498
87.565653
88.316569
89.015919
89.835223
89.521531
88.771803
88.084519
87.379620
86.320686
84.537637
80.077501
77.130567
77.143543
82.363640
86.674751
88.458713
89.752377
89.206434
88.161965
86.503434
82.345441
77.236522
77.299595
82.450694
86.763684
88.511552
89.670257
89.374661
88.294985
86.589603
82.302379
76.393943
76.633383
80.772279
85.195283
87.027231
88.149098
88.849565
89.417795
89.779402
88.991160
88.182445
86.980393
85.066340
80.570936
76.283359
76.518600
80.340645
84.896454
86.800675
87.981997
88.824601
89.669441
89.487065
88.737596
87.964381
86.822438
84.964326
80.469239
75.628563
75.869205
80.800123
85.242734
86.966586
88.098653
89.169993
89.600889
88.631182
87.616209
85.981034
81.541872
76.462569
76.403174
81.306586
85.425196
86.992643
87.906635
88.517903
89.565723
89.133384
87.836651
85.896728
81.245073
75.814985
75.538155
80.838649
85.335675
87.439821
89.054174
89.100936
87.919001
87.136188
86.031027
84.307205
80.161819
75.477511
75.535696
80.945580
85.841916
88.016469
89.538183
88.879793
87.858762
87.477797
86.547402
84.831276
80.572279
77.447547
77.485678
82.285516
86.331894
88.029116
89.097479
89.773369
89.736105
89.117816
87.990967
86.304041
82.268277
77.435088
77.475036
82.283663
86.130598
87.773662
88.985364
89.744320
89.683858
88.927467
87.784155
86.135486
82.290007
75.853586
75.755911
80.351927
84.619890
86.548044
87.831619
88.561780
88.963833
89.414917
89.975503
89.051610
88.581105
88.493247
88.228651
88.090479
87.857735
87.213818
86.102375
84.295816
80.347676
75.734441
75.780874
80.681272
84.776231
86.434020
87.480104
88.288138
88.948677
89.603560
89.617352
88.931159
88.771598
88.655219
88.310413
87.903906
87.528150
86.979457
86.046101
84.538285
80.462398
75.278861
75.235290
79.489093
84.351659
86.777780
88.394055
89.692485
88.774353
87.824354
87.624370
86.901256
85.734128
83.718384
79.335114
75.308952
75.541313
79.598744
84.129648
86.275138
87.842899
89.398231
89.085283
88.167872
87.492268
86.433412
85.153211
83.293457
79.073085
75.495154
75.399365
80.153393
84.561553
86.798303
88.520290
89.699674
89.079826
88.302782
88.097980
87.331615
85.939896
83.945033
79.832863
75.385855
75.504331
79.908649
84.276377
86.409896
88.211048
89.591061
89.210314
88.386572
87.969961
87.013039
85.473915
83.582821
79.572515
76.868464
76.971547
80.901390
85.386935
87.237478
88.346876
89.072894
89.949335
88.941712
87.621880
85.589438
80.907818
76.767061
76.768945
80.909329
85.293063
87.060311
88.229946
89.181685
89.817939
88.658973
87.394715
85.577942
81.140365
76.504058
76.541083
81.828104
85.390270
86.904596
87.925650
88.544516
88.661048
89.030229
89.998968
88.969635
87.709339
85.961577
82.194444
76.643823
76.495186
81.944294
85.671507
87.360367
88.151882
88.489890
88.559872
89.088846
89.942578
89.179282
88.111667
86.257500
82.201836
77.196160
77.247935
82.211075
86.506599
88.156963
89.218426
89.790640
88.979486
88.375511
87.507023
86.000229
81.849889
77.043023
77.254965
81.742971
86.255456
88.130982
89.407068
89.500375
88.929671
88.471236
87.459738
85.848766
81.656388
78.269277
78.382396
83.906083
87.740999
88.826241
89.385797
89.969705
89.169477
87.951489
83.967549
78.145470
78.168310
83.586889
87.415268
88.652443
89.437109
89.710983
88.878593
87.643093
83.818333
77.362895
77.452271
82.941557
87.145889
88.640882
89.509512
89.601172
88.712091
87.212933
83.026581
77.411738
77.502083
82.832911
86.934997
88.471388
89.437853
89.649844
88.601946
87.008139
82.822473
79.134052
79.277339
82.434840
86.501234
87.976050
88.821308
89.841595
88.770468
87.023956
82.661928
79.227303
79.129054
82.414542
86.664354
88.127880
88.896921
89.775313
88.937290
87.159096
82.637155
78.578307
78.529437
83.336602
87.426917
88.950499
89.792495
89.614099
88.829065
87.303685
83.210803
78.451126
78.453333
83.270928
87.208820
88.655556
89.750250
89.362822
88.424312
87.098784
83.282561
75.742997
75.758216
79.985416
84.310970
86.224275
87.514556
88.400854
89.192946
89.991322
89.247084
88.636378
88.022619
87.221724
85.995394
84.172114
79.918734
75.699405
75.781470
80.029968
84.231529
86.037108
87.380714
88.429661
89.312955
89.848571
89.369568
88.797868
88.000731
87.076117
85.827406
84.075830
79.976618
78.258804
78.058462
83.258255
87.216910
88.808587
89.843410
88.886194
88.017787
86.668506
82.980433
78.160739
78.173298
83.399153
87.510045
89.078053
89.748223
88.966034
88.296988
86.982098
83.115220
77.079035
77.201882
82.401081
86.845511
88.436688
89.380028
89.715320
88.968650
88.552334
87.783994
86.341120
82.043383
76.728763
77.053656
81.836092
86.194153
87.882513
89.035435
89.695178
88.643498
87.958336
87.121721
85.721430
81.718122
87.840347
87.830302
89.431769
89.835096
89.949466
89.920703
89.877815
89.979005
89.938653
89.860158
89.900378
89.971549
89.861041
89.414126
87.590144
87.571373
89.335289
89.920104
89.938119
89.865431
89.791124
89.848167
89.995854
89.884112
89.943440
89.997896
89.860771
89.382941
76.800007
76.804765
82.605198
86.616414
88.333617
89.335612
89.803011
89.153028
88.737009
87.859921
86.326785
82.471495
76.775538
76.885115
82.747906
86.529448
88.039380
89.092387
89.929766
89.146067
88.474035
87.614007
86.193299
82.542447
82.524377
82.607058
87.155366
89.374584
89.942873
89.720152
89.753332
89.864400
89.979393
89.839919
89.764507
89.649830
89.607034
89.790338
89.551198
87.559190
83.124569
83.170633
87.562781
89.290385
89.671181
89.856502
89.974191
89.986324
89.801403
89.642066
89.559632
89.593539
89.774642
89.958175
89.390447
87.290152
76.446609
76.643446
81.513554
85.647406
87.188974
88.137456
88.756473
89.686015
89.172383
87.963969
86.219899
81.862250
76.559344
76.567726
81.348711
85.473862
87.130420
88.189112
88.778083
89.534330
89.276662
87.917329
86.013579
81.557967
77.167453
77.212636
81.309816
85.953268
87.905687
89.135518
89.846917
89.022625
88.386827
87.330062
85.520595
81.109534
77.101872
77.327681
81.137171
85.876608
87.890103
89.181966
89.767227
89.081378
88.425640
87.322042
85.478561
80.938875
77.602107
77.483301
81.968873
86.091995
87.704685
88.884978
89.631511
89.831809
88.990390
87.745738
86.059862
81.839497
77.380903
77.262927
82.032607
86.243414
88.032674
89.150888
89.856540
89.628042
89.039648
87.995627
86.281488
82.166345
76.246859
76.348972
80.033043
84.529213
86.528340
87.819345
88.709979
89.414363
89.845792
89.049681
88.041523
86.705673
84.665935
80.092132
76.285556
76.313224
80.204126
84.682353
86.588078
87.765165
88.601335
89.363967
89.762911
88.863340
88.010433
86.794135
84.833215
80.288420
77.074370
77.032994
81.113245
85.464613
87.328370
88.709579
89.927354
89.191241
88.233073
86.974402
85.218024
81.003725
77.043203
77.104592
80.996167
85.583061
87.673618
89.025984
89.976299
89.295066
88.554600
87.348369
85.347459
80.866777
75.634908
75.474783