# vtk DataFile Version 3.0
Dislocation network (FCC crystal) exported from OpenDiS
ASCII
DATASET UNSTRUCTURED_GRID
POINTS 4320 FLOAT
0.00000000e+00 0.00000000e+00 0.00000000e+00
1.95620000e+04 0.00000000e+00 0.00000000e+00
0.00000000e+00 1.95620000e+04 0.00000000e+00
0.00000000e+00 0.00000000e+00 1.95620000e+04
1.95620000e+04 1.95620000e+04 0.00000000e+00
1.95620000e+04 0.00000000e+00 1.95620000e+04
0.00000000e+00 1.95620000e+04 1.95620000e+04
1.95620000e+04 1.95620000e+04 1.95620000e+04
2.20595102e+03 6.23701195e+03 1.26779389e+04
2.24126702e+03 6.22738422e+03 1.27036272e+04
2.20595102e+03 6.23701195e+03 1.26779389e+04
2.22362892e+03 6.24167743e+03 1.26649265e+04
1.92783473e+03 1.69785807e+04 1.59822127e+04
1.85308978e+03 1.70245999e+04 1.59534869e+04
1.92783473e+03 1.69785807e+04 1.59822127e+04
2.00330343e+03 1.69256229e+04 1.60047236e+04
2.43491203e+03 6.14896033e+03 1.28188483e+04
2.34524009e+03 6.18740882e+03 1.27676248e+04
2.43491203e+03 6.14896033e+03 1.28188483e+04
2.56626440e+03 6.08791362e+03 1.28891539e+04
2.56626440e+03 6.08791362e+03 1.28891539e+04
2.69449423e+03 6.02630732e+03 1.29557775e+04
2.69449423e+03 6.02630732e+03 1.29557775e+04
2.81888842e+03 6.08893645e+03 1.28940124e+04
2.81888842e+03 6.08893645e+03 1.28940124e+04
2.95257411e+03 6.15260990e+03 1.28240002e+04
2.95257411e+03 6.15260990e+03 1.28240002e+04
3.04341543e+03 6.19195074e+03 1.27724997e+04
4.67937211e+03 1.35021322e+04 1.04369846e+04
4.72201366e+03 1.34627678e+04 1.05189905e+04
4.67937211e+03 1.35021322e+04 1.04369846e+04
4.59578143e+03 1.35741065e+04 1.02814196e+04
3.18303743e+03 6.24164786e+03 1.26825748e+04
3.14711119e+03 6.23188746e+03 1.27087407e+04
3.18303743e+03 6.24164786e+03 1.26825748e+04
3.16506063e+03 6.24635381e+03 1.26693040e+04
6.96106349e+03 4.31059062e+03 9.38237296e+03
7.04694140e+03 4.34413230e+03 9.43470918e+03
6.96106349e+03 4.31059062e+03 9.38237296e+03
6.88528323e+03 4.28782148e+03 9.32936183e+03
2.94279760e+03 6.33527284e+03 1.25359600e+04
3.04477811e+03 6.28988967e+03 1.25925573e+04
2.94279760e+03 6.33527284e+03 1.25359600e+04
2.81643026e+03 6.39471884e+03 1.24690386e+04
2.81643026e+03 6.39471884e+03 1.24690386e+04
2.69449423e+03 6.45392050e+03 1.24063042e+04
2.69449423e+03 6.45392050e+03 1.24063042e+04
2.57073755e+03 6.39188201e+03 1.24680224e+04
2.57073755e+03 6.39188201e+03 1.24680224e+04
2.44440149e+03 6.33118725e+03 1.25336637e+04
2.44440149e+03 6.33118725e+03 1.25336637e+04
2.34109393e+03 6.28457176e+03 1.25903558e+04
7.78731128e+03 4.31296917e+03 9.38099287e+03
7.86401455e+03 4.28996864e+03 9.32729013e+03
7.78731128e+03 4.31296917e+03 9.38099287e+03
7.70084544e+03 4.34658033e+03 9.43384756e+03
1.68050128e+04 1.70495105e+04 1.29425164e+04
1.66844914e+04 1.70656299e+04 1.30469184e+04
1.68050128e+04 1.70495105e+04 1.29425164e+04
1.67955289e+04 1.70489300e+04 1.29336129e+04
5.99513868e+03 2.06245508e+03 7.43529481e+03
5.93945948e+03 2.00788589e+03 7.32504642e+03
5.99513868e+03 2.06245508e+03 7.43529481e+03
6.06135761e+03 2.12710158e+03 7.56616024e+03
1.66710821e+04 1.70326280e+04 1.28254682e+04
1.67955289e+04 1.70489300e+04 1.29336129e+04
1.66710821e+04 1.70326280e+04 1.28254682e+04
1.65447373e+04 1.70088044e+04 1.27229470e+04
1.65447373e+04 1.70088044e+04 1.27229470e+04
1.64136495e+04 1.69798020e+04 1.26208616e+04
1.64136495e+04 1.69798020e+04 1.26208616e+04
1.63412168e+04 1.69612126e+04 1.25670183e+04
1.62770232e+04 1.69447377e+04 1.25192995e+04
1.63412168e+04 1.69612126e+04 1.25670183e+04
1.62770232e+04 1.69447377e+04 1.25192995e+04
1.61456941e+04 1.69065360e+04 1.24261722e+04
1.61456941e+04 1.69065360e+04 1.24261722e+04
1.60258601e+04 1.68675588e+04 1.23453153e+04
1.60258601e+04 1.68675588e+04 1.23453153e+04
1.59097408e+04 1.68256235e+04 1.22711313e+04
1.59097408e+04 1.68256235e+04 1.22711313e+04
1.57869131e+04 1.67771655e+04 1.21967616e+04
1.57869131e+04 1.67771655e+04 1.21967616e+04
1.56608273e+04 1.67228217e+04 1.21250196e+04
1.56608273e+04 1.67228217e+04 1.21250196e+04
1.55320883e+04 1.66622247e+04 1.20568776e+04
1.55320883e+04 1.66622247e+04 1.20568776e+04
1.54204365e+04 1.66050319e+04 1.20024187e+04
1.54204365e+04 1.66050319e+04 1.20024187e+04
1.52868188e+04 1.66663619e+04 1.20747065e+04
1.52868188e+04 1.66663619e+04 1.20747065e+04
1.51653566e+04 1.67188035e+04 1.21437270e+04
1.51653566e+04 1.67188035e+04 1.21437270e+04
1.50431848e+04 1.67677467e+04 1.22169557e+04
1.50431848e+04 1.67677467e+04 1.22169557e+04
1.49238517e+04 1.68120445e+04 1.22919909e+04
1.49238517e+04 1.68120445e+04 1.22919909e+04
1.47765363e+04 1.68614847e+04 1.23898661e+04
4.47904441e+03 1.36453874e+04 1.00934017e+04
4.47102920e+03 1.36473134e+04 1.00834604e+04
4.47904441e+03 1.36453874e+04 1.00934017e+04
4.53553596e+03 1.36171874e+04 1.01780932e+04
1.46938474e+04 1.68872840e+04 1.24467557e+04
1.47765363e+04 1.68614847e+04 1.23898661e+04
1.46938474e+04 1.68872840e+04 1.24467557e+04
1.45645375e+04 1.69240858e+04 1.25392638e+04
1.45645375e+04 1.69240858e+04 1.25392638e+04
1.44306929e+04 1.69584713e+04 1.26387230e+04
1.44306929e+04 1.69584713e+04 1.26387230e+04
1.42995470e+04 1.69880418e+04 1.27402984e+04
1.42995470e+04 1.69880418e+04 1.27402984e+04
1.41710284e+04 1.70129191e+04 1.28439397e+04
5.19199978e+03 4.77178631e+03 1.19563638e+04
5.25449595e+03 4.64465010e+03 1.20210039e+04
5.19199978e+03 4.77178631e+03 1.19563638e+04
5.13196087e+03 4.88970388e+03 1.18984852e+04
8.90220480e+03 1.48709150e+04 1.18772097e+04
8.94888871e+03 1.49415339e+04 1.19011446e+04
8.90220480e+03 1.48709150e+04 1.18772097e+04
8.84540617e+03 1.47723640e+04 1.18354573e+04
1.40358603e+04 1.70309980e+04 1.29610289e+04
1.41564529e+04 1.70480679e+04 1.30645516e+04
1.40358603e+04 1.70309980e+04 1.29610289e+04
1.40509123e+04 1.70302611e+04 1.29467137e+04
1.41564529e+04 1.70480679e+04 1.30645516e+04
1.42899427e+04 1.70761164e+04 1.31699930e+04
1.42899427e+04 1.70761164e+04 1.31699930e+04
1.44005704e+04 1.71027993e+04 1.32539377e+04
1.44005704e+04 1.71027993e+04 1.32539377e+04
1.45205430e+04 1.71347051e+04 1.33420045e+04
1.45205430e+04 1.71347051e+04 1.33420045e+04
1.46472313e+04 1.71711139e+04 1.34322840e+04
1.46472313e+04 1.71711139e+04 1.34322840e+04
1.47655394e+04 1.72077530e+04 1.35139530e+04
1.47655394e+04 1.72077530e+04 1.35139530e+04
1.48670627e+04 1.72418812e+04 1.35813481e+04
1.48670627e+04 1.72418812e+04 1.35813481e+04
1.49698196e+04 1.72792795e+04 1.36467068e+04
1.49698196e+04 1.72792795e+04 1.36467068e+04
1.50805803e+04 1.73229415e+04 1.37138055e+04
1.50805803e+04 1.73229415e+04 1.37138055e+04
1.51934988e+04 1.73711066e+04 1.37785588e+04
1.51934988e+04 1.73711066e+04 1.37785588e+04
1.53076789e+04 1.74236127e+04 1.38402328e+04
1.53076789e+04 1.74236127e+04 1.38402328e+04
1.54204365e+04 1.74794823e+04 1.38971208e+04
1.54204365e+04 1.74794823e+04 1.38971208e+04
1.55335404e+04 1.74263645e+04 1.38371349e+04
1.55335404e+04 1.74263645e+04 1.38371349e+04
1.56458987e+04 1.73768625e+04 1.37742785e+04
1.56458987e+04 1.73768625e+04 1.37742785e+04
1.57583735e+04 1.73307542e+04 1.37079121e+04
1.57583735e+04 1.73307542e+04 1.37079121e+04
1.58684273e+04 1.72890038e+04 1.36396087e+04
1.58684273e+04 1.72890038e+04 1.36396087e+04
1.59705832e+04 1.72532074e+04 1.35732492e+04
1.59705832e+04 1.72532074e+04 1.35732492e+04
1.60721291e+04 1.72203448e+04 1.35045659e+04
1.60721291e+04 1.72203448e+04 1.35045659e+04
1.61900440e+04 1.71851696e+04 1.34218262e+04
1.61900440e+04 1.71851696e+04 1.34218262e+04
1.63161762e+04 1.71501856e+04 1.33306779e+04
1.63161762e+04 1.71501856e+04 1.33306779e+04
1.64357964e+04 1.71194200e+04 1.32418234e+04
1.64357964e+04 1.71194200e+04 1.32418234e+04
1.65440665e+04 1.70940338e+04 1.31589395e+04
1.65440665e+04 1.70940338e+04 1.31589395e+04
1.66844914e+04 1.70656299e+04 1.30469184e+04
9.73997909e+03 1.58658571e+04 3.62665958e+03
9.72619120e+03 1.58500207e+04 3.62870807e+03
9.73997909e+03 1.58658571e+04 3.62665958e+03
9.80218936e+03 1.57908704e+04 3.61388315e+03
5.43914828e+03 4.17615970e+03 1.23048419e+04
5.44007734e+03 4.16918320e+03 1.23108894e+04
5.43914828e+03 4.17615970e+03 1.23048419e+04
5.42117197e+03 4.24441234e+03 1.22545656e+04
9.59406631e+03 1.56828819e+04 3.66372192e+03
9.65347852e+03 1.57605849e+04 3.64543121e+03
9.59406631e+03 1.56828819e+04 3.66372192e+03
9.53003396e+03 1.55942925e+04 3.68827904e+03
9.49975424e+03 1.55524001e+04 3.69989165e+03
9.53003396e+03 1.55942925e+04 3.68827904e+03
9.49975424e+03 1.55524001e+04 3.69989165e+03
9.41048035e+03 1.54233335e+04 3.73968441e+03
9.41048035e+03 1.54233335e+04 3.73968441e+03
9.32183268e+03 1.52912003e+04 3.78316996e+03
9.32183268e+03 1.52912003e+04 3.78316996e+03
9.24075654e+03 1.51667771e+04 3.82651700e+03
9.24075654e+03 1.51667771e+04 3.82651700e+03
9.16989770e+03 1.50544810e+04 3.86795425e+03
9.16989770e+03 1.50544810e+04 3.86795425e+03
9.10360397e+03 1.49458612e+04 3.91028032e+03
9.10360397e+03 1.49458612e+04 3.91028032e+03
9.03606697e+03 1.48311006e+04 3.95750390e+03
9.03606697e+03 1.48311006e+04 3.95750390e+03
8.96918557e+03 1.47126148e+04 4.00910833e+03
8.96918557e+03 1.47126148e+04 4.00910833e+03
8.90501970e+03 1.45946159e+04 4.06294131e+03
8.90501970e+03 1.45946159e+04 4.06294131e+03
8.84003075e+03 1.44717355e+04 4.12083285e+03
8.84003075e+03 1.44717355e+04 4.12083285e+03
8.89555318e+03 1.43586049e+04 4.06322471e+03
8.89555318e+03 1.43586049e+04 4.06322471e+03
8.95853204e+03 1.42364512e+04 4.00404984e+03
8.95853204e+03 1.42364512e+04 4.00404984e+03
9.02286926e+03 1.41174234e+04 3.94935932e+03
9.02286926e+03 1.41174234e+04 3.94935932e+03
9.08895077e+03 1.40009669e+04 3.89898431e+03
9.08895077e+03 1.40009669e+04 3.89898431e+03
9.15441802e+03 1.38905297e+04 3.85401439e+03
9.15441802e+03 1.38905297e+04 3.85401439e+03
9.22358121e+03 1.37783652e+04 3.81101307e+03
9.22358121e+03 1.37783652e+04 3.81101307e+03
9.30358683e+03 1.36531624e+04 3.76581589e+03
9.30358683e+03 1.36531624e+04 3.76581589e+03
9.39200310e+03 1.35193130e+04 3.72038269e+03
9.39200310e+03 1.35193130e+04 3.72038269e+03
9.48332811e+03 1.33859765e+04 3.67837126e+03
5.35069805e+03 1.15884460e+04 9.10224010e+03
[...]
CELL_DATA 2157
SCALARS SlipSystemID int 1
LOOKUP_TABLE default
0
10
7
10
10
10
10
10
7
7
7
6
6
7
10
4
4
10
10
10
7
7
7
1
1
1
4
12
12
4
4
4
4
4
4
4
4
4
4
4
4
1
1
1
1
1
6
6
1
1
1
1
1
2
2
8
8
4
1
4
4
4
4
4
4
4
4
4
4
4
1
1
1
1
1
1
1
1
1
1
1
5
11
2
2
5
5
5
5
5
5
5
5
5
5
5
5
11
11
11
11
11
11
11
11
11
4
4
11
11
4
4
11
5
5
5
5
5
5
5
5
5
5
5
5
11
11
11
11
11
11
11
11
11
11
11
2
8
10
10
2
2
8
8
2
2
2
2
8
8
8
8
1
1
8
8
8
8
8
2
12
12
2
2
2
2
2
8
8
8
8
8
12
12
9
6
5
5
6
6
6
6
6
6
6
9
9
9
9
9
9
9
5
5
6
9
4
4
6
6
6
6
6
6
6
9
9
9
9
9
9
9
4
4
3
12
8
8
3
3
3
3
3
3
3
3
3
3
3
3
12
12
12
12
12
10
10
12
12
12
12
6
6
9
9
12
3
3
3
3
3
3
3
3
3
3
12
12
12
12
12
12
12
12
12
10
7
10
10
10
10
10
7
7
7
7
7
7
10
10
10
10
10
10
10
10
10
7
7
7
7
7
10
4
1
7
7
4
4
7
4
4
4
4
4
4
4
1
1
1
1
1
1
1
9
9
1
1
9
9
1
4
6
6
4
4
4
4
4
4
4
4
4
1
1
1
1
1
1
1
1
1
6
6
5
11
3
3
5
5
5
5
11
7
7
11
11
11
7
7
11
5
9
9
5
5
5
5
11
11
11
11
11
11
2
8
11
11
2
2
2
2
2
8
8
8
8
8
12
12
8
2
12
12
2
2
2
2
2
8
8
8
8
8
8
8
6
9
8
8
6
6
6
6
9
9
9
9
9
6
3
3
6
6
6
3
3
6
1
1
12
12
9
9
1
1
3
12
3
3
3
3
3
12
12
12
12
12
12
3
3
3
3
3
3
3
5
3
12
11
11
12
12
4
4
12
12
2
2
10
7
4
4
10
10
10
10
10
7
7
7
7
7
7
7
1
1
7
10
1
1
10
10
10
10
10
7
7
7
7
7
2
2
4
1
8
8
4
4
11
11
4
4
4
1
1
1
11
11
1
1
3
3
1
4
12
4
4
4
4
4
1
1
1
1
1
10
10
5
11
5
5
5
5
5
11
11
11
11
11
11
5
9
9
5
5
5
9
9
5
5
11
11
6
6
11
11
11
6
6
2
8
10
10
2
2
2
8
8
8
12
12
8
2
2
2
2
2
2
8
8
8
10
10
6
9
6
6
6
6
6
6
9
9
9
9
9
9
7
9
6
3
3
3
3
6
6
6
6
6
9
9
9
9
9
10
10
10
10
12
3
3
3
3
3
3
3
3
12
12
12
12
12
12
12
12
3
4
3
3
3
5
5
3
3
3
3
12
12
12
2
2
12
12
5
5
10
7
10
10
10
10
7
7
7
7
7
10
12
12
10
10
12
12
10
10
7
7
7
7
4
1
4
4
4
4
4
4
1
1
1
1
1
1
1
1
9
9
4
4
9
9
4
4
4
1
1
1
11
11
1
1
3
3
5
11
5
5
5
5
5
11
11
11
11
11
11
5
7
7
5
5
5
5
5
5
11
11
11
7
7
11
11
5
5
8
12
12
2
2
2
12
12
1
8
8
8
2
2
2
2
2
2
8
8
8
8
8
6
9
11
11
11
6
6
6
6
9
9
9
9
9
6
9
4
6
6
6
6
6
9
9
9
9
9
8
8
12
8
3
3
3
3
3
3
3
3
12
12
12
12
12
12
2
2
12
12
12
2
12
3
3
3
3
3
3
3
3
3
3
12
12
12
12
12
12
12
12
12
10
7
10
10
10
10
10
10
7
7
7
7
7
7
7
12
10
10
10
10
10
7
7
7
7
7
7
11
11
4
11
11
4
4
4
4
4
1
1
1
1
1
1
11
11
4
11
11
4
4
4
4
4
4
4
4
1
1
4
4
1
1
11
6
6
5
7
5
5
11
11
11
11
11
11
10
10
11
5
5
5
5
5
5
11
11
11
11
11
2
8
9
9
2
2
2
2
2
2
8
8
8
8
8
8
8
9
9
8
2
1
1
2
2
2
2
2
2
8
8
8
8
8
8
4
4
6
9
6
6
6
6
6
9
9
9
9
9
9
9
6
1
1
6
6
5
5
6
6
9
5
9
9
9
9
9
11
11
3
11
11
3
3
3
3
12
12
12
12
3
3
12
3
3
3
11
3
3
12
3
3
12
12
6
10
7
10
10
10
10
10
7
7
7
7
6
7
10
9
10
10
10
10
7
7
7
7
7
4
4
4
4
4
1
1
1
1
1
4
4
4
7
1
1
1
1
11
10
10
5
5
5
5
11
10
10
11
5
5
5
5
5
11
11
11
11
2
10
2
2
2
2
2
2
2
8
8
8
8
8
8
8
2
8
4
2
2
2
2
2
2
2
8
8
8
8
8
8
9
6
4
6
6
6
6
9
9
1
5
6
6
6
6
6
9
9
9
9
3
3
3
3
3
3
12
12
12
12
12
12
11
3
3
11
8
3
8
8
12
12
12
12
6
10
7
10
10
10
10
10
10
10
7
7
7
7
7
7
7
7
10
10
10
10
10
10
10
10
7
7
7
7
7
7
7
4
1
4
4
4
4
4
1
1
1
1
1
6
1
4
2
2
4
4
4
4
4
1
1
1
1
1
2
5
2
2
5
5
5
5
5
5
11
11
11
11
11
11
11
12
12
5
8
5
5
5
5
5
5
5
5
11
11
11
11
11
11
11
11
4
4
8
2
1
1
2
2
2
2
2
8
8
8
8
8
8
5
5
2
2
8
8
12
12
8
8
6
6
6
6
6
6
6
6
9
9
9
9
9
9
9
6
6
6
6
6
6
6
9
9
9
9
9
12
3
2
3
3
12
12
8
8
12
8
3
3
3
3
3
3
12
12
12
12
12
10
7
9
9
10
10
10
10
10
10
10
7
7
7
7
7
4
10
3
10
10
10
10
10
10
7
7
7
7
7
7
1
4
3
3
4
4
4
4
1
1
1
1
1
4
2
4
4
4
4
1
1
1
1
1
1
5
11
5
5
5
5
5
5
5
5
11
11
11
11
7
11
5
5
5
5
5
5
5
5
11
11
11
11
11
11
11
5
8
2
2
2
2
8
8
8
8
7
7
2
8
11
2
2
7
7
2
2
8
8
8
8
8
9
6
6
9
9
6
6
6
6
6
9
9
9
9
12
3
6
6
3
12
12
12
12
12
9
9
3
3
3
3
3
3
3
12
12
12
12
12
7
5
10
7
7
7
7
6
10
7
9
10
10
7
7
7
7
4
1
4
4
4
4
1
1
1
1
1
4
4
4
4
4
1
1
1
1
11
5
7
5
5
5
5
5
11
11
10
10
10
9
5
5
5
5
11
11
11
11
11
11
3
3
2
8
3
3
2
2
2
8
8
4
2
2
2
2
2
2
8
8
8
8
8
6
9
8
6
6
6
6
6
6
9
9
9
9
9
9
6
11
6
6
6
6
6
9
9
9
9
9
9
12
3
3
3
3
12
12
12
12
12
3
3
3
3
3
3
3
3
12
12
12
12
12
3
10
10
10
10
10
7
7
7
7
7
1
10
10
7
12
7
12
1
4
6
6
4
4
4
4
4
1
1
1
1
1
6
6
4
1
4
4
4
4
4
1
1
1
1
1
5
11
5
5
5
5
2
2
11
11
8
5
5
5
5
5
11
11
11
11
2
8
2
2
2
2
8
8
8
8
2
2
2
2
2
2
8
8
2
6
6
6
6
6
9
9
9
9
9
6
9
11
9
12
10
3
5
5
5
5
3
12
12
12
9
12
12
3
3
3
3
3
3
12
12
12
12
12
7
10
10
10
10
7
7
7
7
10
10
10
10
10
10
10
7
7
7
7
7
7
4
1
4
4
4
1
1
9
9
4
1
7
7
4
4
4
1
1
1
4
11
7
7
5
5
5
5
5
11
11
11
11
11
4
4
5
5
5
5
5
5
5
11
11
11
11
11
11
2
2
2
2
2
2
2
2
2
8
8
8
8
8
8
8
8
8
2
2
4
4
2
2
8
8
8
8
8
8
9
6
6
6
9
9
9
8
8
9
6
3
6
6
6
6
9
9
9
9
3
12
7
3
3
3
3
12
6
3
3
3
3
3
3
12
12
12
12
12
7
10
10
10
10
7
7
7
7
7
3
10
10
10
10
10
10
10
10
7
7
7
7
7
7
7
1
8
8
4
8
8
4
4
4
4
4
1
1
1
1
1
1
1
1
1
9
4
9
4
4
4
4
4
1
1
1
1
1
1
1
1
5
1
5
5
5
5
11
11
11
11
11
11
4
1
5
5
11
11
11
11
8
2
2
2
2
2
8
8
8
8
3
2
8
2
2
2
2
2
8
8
8
1
1
9
1
1
6
3
6
9
9
9
3
6
6
6
6
6
6
9
9
9
9
3
12
3
3
3
3
12
12
12
12
12
12
12
12
12
12
3
10
7
10
10
10
2
10
10
10
10
7
7
7
2
7
7
10
10
10
10
10
10
10
10
7
7
7
7
7
7
7
4
4
4
4
4
1
1
1
1
1
4
1
4
1
1
1
5
11
5
5
5
5
5
11
11
11
11
11
11
5
5
5
5
5
5
11
11
11
11
11
5
5
10
12
12
8
4
4
8
5
4
10
7
10
7
10
7
4
1
2
2
2
8
12
12
7
10
7
10
2
2
8
7
4
5
6
7
8
5
1
1
6
8
8
12
2
11
8
7
13
SCALARS DislocationType int 1
LOOKUP_TABLE default
0
3
2
3
3
3
3
3
3
3
3
3
3
3
2
3
3
3
3
3
3
3
3
3
3
2
2
3
3
2
2
2
2
2
3
3
3
3
3
3
3
3
3
3
3
3
2
3
3
3
2
2
2
3
3
3
3
2
2
2
2
2
3
3
3
3
3
3
3
3
3
3
3
3
3
3
3
3
2
2
2
2
2
2
2
2
3
3
3
3
3
3
3
3
3
3
3
3
3
3
3
3
3
3
3
3
2
3
3
2
3
3
2
2
2
3
3
3
3
3
3
3
3
3
3
3
3
3
3
3
3
3
3
3
3
2
2
3
3
3
3
3
3
3
3
3
3
3
3
3
3
3
3
3
3
3
2
3
2
3
3
3
3
3
3
3
3
3
3
3
3
3
2
3
2
3
3
3
3
3
3
3
3
3
3
3
3
3
3
3
3
3
2
3
2
3
3
3
3
3
3
3
3
3
3
3
3
3
3
3
3
3
2
2
2
2
3
3
3
3
3
3
2
2
3
3
3
3
3
3
3
3
3
3
3
3
3
3
3
3
3
3
3
3
3
2
2
3
3
3
3
3
3
3
3
3
3
3
3
3
3
3
3
3
3
2
2
3
3
3
3
3
3
3
3
3
3
2
2
2
3
3
3
3
3
3
3
3
3
3
3
3
3
2
2
2
2
2
2
3
2
3
3
3
3
3
3
3
3
3
3
3
3
2
2
3
2
2
3
3
2
2
3
3
2
2
2
3
3
3
3
3
3
3
3
3
3
3
3
2
2
2
2
3
2
2
3
3
3
3
3
3
3
2
2
3
3
3
3
3
2
2
3
3
3
3
3
3
3
3
3
3
2
2
2
2
3
3
3
3
3
3
3
3
3
3
3
3
2
3
2
2
3
3
3
3
3
3
3
3
3
3
3
3
2
2
2
2
3
3
3
3
3
3
3
3
3
3
2
2
3
3
3
3
3
3
3
3
3
3
3
3
3
3
2
3
3
2
3
3
3
3
3
3
3
3
3
3
3
2
3
3
3
3
3
3
2
3
3
2
3
3
3
3
3
3
3
3
3
2
2
2
2
3
3
3
3
3
3
3
3
3
3
3
3
3
3
2
2
2
3
3
3
3
3
3
3
3
3
3
2
3
3
2
2
3
3
3
3
2
3
3
3
3
3
3
3
3
3
3
3
3
3
2
2
3
3
3
3
3
3
3
3
3
3
3
3
3
2
2
3
3
3
3
3
3
3
3
3
3
2
2
2
3
3
3
3
3
3
3
3
3
3
3
3
3
3
3
2
3
2
3
3
3
3
3
3
3
3
3
3
3
2
3
3
3
3
3
3
3
3
3
2
3
3
2
3
3
3
3
3
3
3
3
3
3
3
3
3
3
2
3
3
2
3
3
3
3
3
3
3
3
3
3
3
3
3
2
3
3
3
3
3
3
3
3
3
3
3
3
3
3
3
3
3
3
3
3
3
3
3
3
3
3
3
3
3
3
3
3
3
3
3
3
2
3
2
2
3
3
3
3
3
3
3
3
2
2
3
3
3
3
2
3
3
3
3
3
3
3
2
2
3
3
3
3
3
3
3
3
3
3
3
3
3
2
3
3
3
3
2
3
3
3
3
3
3
3
3
3
3
3
3
3
2
2
3
3
3
3
3
3
3
3
3
3
2
2
2
3
3
3
3
3
3
3
3
3
3
3
3
3
3
2
3
2
3
3
3
3
3
2
3
2
3
3
3
2
3
3
3
3
3
3
3
3
3
3
2
3
3
2
3
3
3
3
3
3
3
3
3
2
3
2
2
3
3
3
3
3
3
3
3
3
3
3
3
2
2
2
3
3
3
3
3
3
3
3
3
3
3
3
3
3
3
3
3
2
2
2
2
2
3
3
3
3
3
3
3
3
3
3
3
3
3
3
3
3
2
2
2
3
3
3
3
3
3
3
3
3
3
3
3
2
2
3
3
3
3
3
3
3
3
3
3
3
2
2
3
3
3
3
3
3
3
3
3
3
3
3
3
3
2
3
2
3
3
3
3
3
3
3
3
3
3
3
3
2
2
3
3
2
3
3
3
3
3
3
3
3
3
3
3
3
3
3
2
2
3
3
3
3
3
3
3
3
3
3
3
3
2
3
3
3
3
3
3
3
3
3
3
3
3
3
3
3
3
2
3
3
3
3
3
3
3
3
3
3
3
3
3
3
3
3
2
3
2
3
3
3
3
3
3
3
3
3
3
3
2
2
2
2
3
3
3
2
3
3
3
3
3
3
3
3
3
3
3
3
2
3
3
3
3
3
3
3
3
3
3
3
2
2
3
3
2
3
3
3
2
3
3
3
3
2
2
3
3
3
3
3
3
3
3
3
3
2
2
3
3
3
3
3
3
3
3
3
3
2
3
3
3
3
3
3
3
3
2
3
3
2
2
2
2
3
3
2
3
3
3
3
3
3
3
2
3
3
2
3
3
3
3
3
3
3
3
2
3
3
3
3
3
3
3
3
3
3
3
3
3
3
3
2
2
2
3
3
3
3
3
3
3
3
3
3
3
3
3
3
2
2
3
3
3
3
3
3
2
3
2
3
3
3
3
3
3
3
3
3
3
3
3
3
3
3
3
3
3
3
3
3
3
3
3
2
3
3
3
3
3
3
3
3
2
2
3
3
3
3
3
3
3
3
3
3
3
3
3
3
2
2
3
3
3
3
3
3
3
3
3
3
3
3
3
3
2
2
3
3
3
3
3
3
3
3
3
3
2
2
2
3
3
3
3
3
3
3
3
3
3
3
3
3
3
2
2
3
3
3
3
3
3
3
3
3
3
3
3
3
2
3
2
3
3
3
3
3
3
3
3
3
3
3
3
3
3
3
3
3
3
3
2
2
3
3
3
3
3
3
3
3
3
3
3
3
2
3
3
3
3
3
3
3
3
3
3
3
3
2
3
3
3
3
3
3
3
3
3
3
2
3
3
3
3
3
3
3
3
3
3
3
3
3
2
3
2
3
3
3
3
3
3
3
2
2
3
3
3
3
3
3
3
3
3
3
2
2
3
3
3
3
3
3
3
3
3
3
3
3
3
3
2
2
3
3
3
3
3
3
3
3
3
3
3
3
3
2
3
2
3
3
3
3
3
3
3
3
3
3
2
3
3
3
3
3
3
3
3
2
3
3
2
2
2
2
3
3
3
3
3
3
3
3
3
3
3
2
2
2
3
3
3
3
3
3
3
3
3
3
3
3
2
2
3
3
3
3
3
3
3
3
3
3
3
2
3
3
3
3
2
3
3
3
3
3
3
3
3
2
3
3
3
3
2
3
3
3
3
3
3
3
3
3
3
3
3
3
3
3
3
3
3
3
3
2
3
3
3
3
3
3
3
3
3
3
3
2
3
3
3
3
3
3
3
2
3
3
3
3
3
3
3
3
2
2
3
3
3
3
3
3
3
3
2
2
3
3
3
3
3
3
3
3
2
2
3
3
3
3
3
3
3
3
3
3
2
3
3
3
3
3
3
3
3
3
3
3
3
3
2
3
2
3
3
3
3
3
3
3
3
3
3
3
3
3
3
3
3
3
3
3
3
2
3
3
3
3
3
3
3
3
3
3
3
3
3
3
3
3
3
3
3
3
3
3
3
3
3
3
3
3
3
3
3
3
3
3
2
3
3
3
3
3
3
3
3
3
3
3
3
3
2
2
3
3
3
3
3
3
3
3
2
2
3
3
3
3
3
3
2
2
3
3
3
3
3
3
3
3
3
3
3
3
2
3
2
2
3
3
3
3
3
3
3
3
3
3
2
2
3
3
3
3
3
3
3
3
3
2
3
3
3
3
3
3
3
3
3
3
3
3
3
3
3
3
3
2
2
3
3
3
3
3
3
3
3
3
3
3
3
3
3
3
3
3
3
3
3
2
3
2
2
3
3
3
2
3
3
3
3
3
3
3
2
2
3
3
3
3
3
3
3
3
3
3
3
3
3
3
3
3
3
3
3
2
3
3
3
3
3
3
3
3
3
3
3
3
2
3
3
3
3
3
3
3
3
2
2
2
3
3
3
3
3
3
3
2
2
3
3
3
3
3
3
3
3
3
3
3
3
3
3
2
3
3
3
3
3
3
3
3
3
3
3
3
3
3
3
3
3
3
3
3
3
3
3
3
3
3
3
3
3
2
3
3
2
3
3
3
3
3
3
3
3
3
3
3
3
3
3
3
3
3
3
2
3
3
3
3
3
3
3
3
3
3
2
2
3
3
3
3
3
3
3
2
3
3
3
3
3
3
3
3
3
3
2
3
3
3
3
3
3
3
3
3
3
2
3
3
3
3
3
3
3
3
3
3
3
3
3
3
2
3
3
3
2
3
3
3
3
3
3
3
3
3
3
3
3
3
3
2
3
3
3
3
3
3
3
3
3
3
3
3
3
3
3
3
3
2
3
3
3
3
3
3
3
3
3
3
2
2
3
3
3
3
3
3
3
2
3
3
3
3
3
3
3
3
3
2
2
3
3
3
3
3
3
3
3
3
3
3
2
3
3
3
3
3
3
3
2
3
3
3
3
3
3
3
3
3
3
3
2
3
3
3
3
3
3
3
3
3
3
3
3
3
3
3
2
2
3
3
3
3
3
3
3
3
3
3
3
3
3
3
2
3
3
3
3
3
3
3
3
3
3
3
3
3
3
2
3
3
3
3
3
3
3
3
2
3
3
3
3
3
3
2
2
3
3
3
3
3
3
3
3
3
3
2
2
3
3
3
3
3
3
3
3
3
3
3
3
2
2
3
2
3
3
3
3
3
3
3
3
3
2
2
3
3
3
3
3
3
3
3
3
3
3
3
3
3
3
3
3
3
3
2
3
3
2
3
3
3
3
3
3
3
3
3
2
SCALARS CharacterAngle float 1
LOOKUP_TABLE default
0.0
75.288510
74.751315
82.391524
76.888185
85.297942
87.669514
88.705911
89.770226
88.431897
85.580870
88.678279
87.531383
75.230457
74.619811
82.798601
77.025150
86.367301
88.043906
89.041709
89.914387
88.705023
86.776820
76.987531
82.678013
67.075928
63.129564
89.666947
89.602534
66.921668
70.220426
72.157682
74.304448
74.304448
76.424927
78.592467
80.890591
83.055725
85.445061
88.062036
89.190059
87.289212
85.494120
83.453032
81.541420
79.251755
70.524390
79.083641
77.752346
76.032769
74.320530
72.411846
70.514449
89.442202
89.394002
79.464181
84.962584
67.515233
62.488632
71.493162
73.361670
74.876220
76.206532
77.606347
79.287103
81.071911
83.034916
85.152059
87.345807
89.701238
87.992100
86.074427
84.063277
82.069802
80.199876
78.488423
76.890000
75.582416
74.338230
72.954108
71.027647
66.829758
69.162709
67.043506
74.718266
73.009888
75.572623
75.572623
77.519231
78.837024
80.069798
81.398315
82.739856
84.164914
85.742716
87.105746
88.090069
89.390154
88.969977
87.320979
85.547516
83.883687
82.330440
80.881072
79.496376
77.946697
69.698316
77.119019
75.815179
73.096713
87.117932
88.342236
66.707863
69.221366
73.255643
76.559910
78.310537
79.477296
80.607981
81.780834
82.899466
84.049508
85.306894
86.674570
87.872756
89.381578
88.699759
87.003064
85.479130
84.120984
82.826353
81.443063
80.061169
78.648474
76.711586
73.273625
68.499000
76.825084
86.821793
85.536682
80.243964
84.961776
88.916622
86.505009
87.393149
88.826814
89.975211
89.146591
88.758416
88.720603
87.956182
86.652716
86.331537
84.837693
84.408492
80.201182
67.604164
78.735649
68.520075
77.292064
88.477159
88.477159
84.472765
87.047216
88.753177
89.912176
89.435708
89.170168
89.057053
88.160336
86.479968
83.889678
68.714793
76.427438
74.876006
80.373656
86.536748
86.536748
88.150205
89.875082
89.865656
89.940577
89.866675
89.669737
89.530366
89.506285
89.517502
89.420409
89.346826
89.299481
89.693838
88.438020
68.782401
75.921943
74.852753
80.589577
84.820367
86.490105
88.088391
89.639064
89.886065
89.827017
89.740280
89.609186
89.465141
89.450778
89.496467
89.451551
89.447970
89.487902
89.983805
88.189575
68.251619
74.688892
67.427210
73.503953
89.136178
84.727764
81.297904
82.628806
79.301597
79.301597
66.115166
70.370607
85.409202
86.068717
86.413408
86.615179
86.766207
86.751459
87.450540
88.884253
89.850427
89.278636
88.348020
86.621559
83.195768
87.191951
85.567772
84.348269
82.528204
83.578777
78.046993
79.494847
83.565207
66.121969
73.442525
80.816235
83.827061
85.326893
85.983868
86.392548
86.877225
87.208442
87.481904
87.558592
88.482675
89.640712
89.705079
89.094649
88.414917
87.745086
86.874535
85.280546
81.088326
73.606244
68.443861
81.083227
85.882896
88.178290
89.632193
88.913140
88.033253
87.711783
86.735550
84.905272
80.601490
73.339639
68.621562
70.855182
77.532033
81.567269
85.322878
87.948035
87.948035
89.764320
88.642174
87.938430
87.501961
86.464651
84.425089
81.167075
76.068796
64.541123
66.346266
67.621987
72.634669
69.090583
71.493908
75.806377
73.921705
77.034366
79.740408
82.360436
84.819850
87.233379
89.216553
89.168084
87.235530
84.949596
82.469248
79.868454
77.165776
74.162520
71.906113
78.757690
71.752928
69.094832
84.266432
84.266432
64.475103
66.284257
87.256575
88.916496
69.278230
71.653313
74.031912
76.512995
79.067211
82.012348
84.902552
87.291030
89.308814
89.119899
87.254390
84.858467
82.068678
79.143028
76.573195
74.164227
71.715806
69.330468
70.428958
78.760121
71.468362
71.377001
87.610711
89.044155
80.510519
85.756618
88.018246
89.664219
88.908171
66.775166
72.384446
87.534056
84.680328
82.024471
82.570631
84.240266
69.326901
72.888300
87.537938
88.770616
80.480489
85.434164
87.986368
89.769200
88.718340
87.391480
85.407963
80.421045
65.221154
69.148826
70.543144
74.491672
79.760800
76.525844
81.535787
84.987622
87.169319
88.671176
89.905764
89.134269
88.160340
86.780091
84.683803
81.307154
69.864384
78.543038
70.366329
74.566528
89.951432
89.951432
81.638825
85.238467
87.379912
88.773204
89.917666
89.181073
88.292886
87.010125
84.983686
81.539717
66.781659
74.504671
74.711266
73.662538
87.783346
88.287548
80.532664
86.584258
88.756306
89.868513
88.875829
87.971571
86.163198
82.174662
74.845335
68.982406
83.616643
78.145787
82.610126
86.216767
88.470885
87.309212
85.386744
89.921237
89.510418
89.398408
78.458434
85.130001
85.572627
81.153504
70.738275
80.366367
75.605742
69.195035
83.031443
87.076814
88.665066
89.463670
89.955749
89.583409
89.206972
88.469635
86.848876
82.767432
75.399604
69.098097
88.345109
86.991458
83.081281
86.717293
88.128507
89.153158
70.128178
89.982429
89.259719
70.955100
77.976669
88.646549
87.838969
84.113084
82.805186
86.604730
83.126397
86.103096
85.637033
68.897919
68.147211
67.970354
73.747571
75.025716
79.298971
82.921988
86.354651
89.145817
88.727121
86.183044
82.463526
82.463526
79.853050
78.297293
76.076197
87.762258
89.352646
65.371812
69.450891
69.773986
77.189198
75.327906
78.942216
82.712859
86.248356
89.107717
88.750914
85.993382
82.436208
78.740186
74.502285
80.968230
75.414566
67.364162
73.542809
75.854082
81.551014
78.788526
83.148430
68.763315
75.928249
85.780700
88.050820
89.527344
89.448355
87.979568
85.735394
86.181655
86.181655
83.123927
78.714061
82.034174
76.693678
67.327929
73.512208
81.866135
79.947997
83.029591
85.897942
88.016821
89.551144
89.299962
87.885113
85.804131
83.007912
79.961203
83.843575
77.186017
74.324171
68.550052
81.768622
86.043203
87.777774
88.811050
89.588413
89.699324
88.906256
87.890971
86.200140
81.964715
74.486905
68.583827
70.244011
78.527004
82.078101
85.467383
87.496244
88.282807
86.783763
88.549762
89.398931
89.777430
88.770066
89.278379
89.278379
87.591514
85.487741
82.001644
69.115145
76.914264
73.258678
76.041140
86.618799
86.618799
84.389800
86.394995
88.356091
89.893399
86.968013
84.376848
87.202576
85.582486
71.494644
76.637663
80.785350
84.105723
84.113556
86.937238
88.589903
89.932062
87.700919
84.467326
68.702505
75.714288
77.058282
71.818086
84.628029
87.551765
88.985947
89.745813
89.688095
89.098610
88.872921
88.884097
88.826212
88.289459
87.060365
84.391082
75.942677
76.926376
71.888447
89.088071
87.947112
67.158333
76.323524
86.870167
88.879071
89.641769
89.744583
89.034464
88.750662
88.761092
88.706037
88.233770
86.646446
89.538580
88.678010
68.939829
76.922983
89.556087
88.815141
88.957985
88.439159
88.444062
88.672964
89.193475
89.957340
89.986799
89.970569
89.956091
89.209445
88.649511
88.383333
88.373696
88.923309
89.027052
89.626973
85.913868
89.650235
89.592308
89.666303
84.702241
86.186400
89.686819
89.693618
89.843757
89.904719
89.929990
89.766395
89.661710
87.444465
86.537272
89.551254
89.712853
69.449522
76.477429
73.532972
69.293073
81.324728
85.922520
88.103118
89.623599
89.069722
87.798215
85.771156
81.333277
73.583519
69.370398
88.906862
88.044466
82.598903
86.001765
70.806414
78.700493
87.740006
89.589220
89.282276
87.519004
85.833394
82.471443
70.592750
68.295190
78.945709
84.129460
86.391323
88.012971
89.325053
89.794684
89.469238
89.000110
87.834100
86.357380
84.235953
79.144727
79.144727
70.819777
88.597997
89.086662
81.512332
83.024592
69.045376
76.818016
88.261047
89.287882
89.888619
89.705976
89.105667
88.097934
86.115282
87.762935
83.528501
81.383533
85.003029
79.596194
73.838965
68.211574
80.006440
84.371711
86.628034
88.096330
89.197287
89.886578
88.721148
87.450724
85.227608
80.730134
73.937418
67.127462
69.465631
77.505497
79.972525
83.407373
86.019123
87.687393
87.687393
88.343916
88.963149
89.528387
87.402963
87.140855
87.631665
84.533519
80.012492
69.660188
77.819744
74.379356
89.404196
88.765132
80.139008
84.372429
87.482726
67.585092
75.997579
72.295726
86.349582
83.693790
79.822214
74.393096
81.208847
85.813159
88.136934
89.739820
88.766970
88.022398
87.753004
86.789876
84.979673
80.894328
71.827627
76.580615
89.414261
69.621273
76.924625
86.342365
88.505136
89.316359
89.871604
89.721524
89.320017
88.561957
86.472294
70.169765
76.626161
72.250514
66.213650
83.090106
87.078551
88.495083
89.257373
89.712432
89.858952
89.286675
88.452973
87.049857
83.055690
80.756659
75.864157
68.624272
70.252230
74.186345
76.834170
81.469594
83.296323
84.973400
86.658070
88.421810
89.860280
88.553274
87.308991
85.719490
84.265569
82.771268
81.095512
87.591361
87.389656
79.131304
76.744445
74.184181
67.385661
65.939674
68.935125
73.816665
77.542805
79.799742
81.554649
83.227314
84.858988
86.506272
88.176414
89.754256
88.825163
87.476362
85.933851
84.327361
82.751493
81.140016
79.365188
77.145473
73.476016
72.589279
68.508276
79.875351
84.726880
87.163143
88.677511
89.882374
88.651791
88.302524
88.050189
87.353236
86.292438
84.283816
79.851969
72.657532
70.425644
80.962084
84.296627
88.218913
89.803636
89.002123
88.604989
88.034603
86.695881
85.691105
83.636878
80.550295
66.665407
74.154527
83.250544
81.477167
84.013817
88.838628
89.518815
89.669241
89.643707
89.567625
89.450000
89.517996
89.589639
89.852847
89.300479
83.497553
69.600262
77.667988
70.738224
88.363464
86.494809
86.299249
89.026890
89.872180
81.977287
83.556782
89.914132
89.871660
89.534917
89.347998
89.366719
68.201386
74.266855
89.504592
86.548679
72.192223
88.766586
86.826262
83.179929
75.452501
87.993464
88.815123
89.802303
88.913275
87.169183
85.781943
84.720723
83.483677
84.029738
82.188044
69.331030
72.092378
80.144777
84.756054
86.705851
87.949072
88.978232
89.937771
88.628430
87.266590
85.246640
80.509498
82.179539
82.476623
70.720924
79.295689
89.455815
89.660119
89.763861
89.736634
89.683871
89.487228
89.373770
89.392384
89.431196
89.450183
89.644730
89.644730
89.818484
86.326643
86.326643
74.839763
85.879854
81.909303
85.092719
89.531091
89.906352
89.814716
89.956261
89.671884
89.197661
89.088558
89.116280
89.046638
89.014852
89.365396
89.993774
75.266701
71.385012
76.857355
69.365332
84.391281
87.965903
89.268929
89.883228
89.638613
89.318163
89.260823
88.748971
87.797421
86.209611
82.305429
74.710116
69.843360
71.364719
74.747315
83.944790
87.208969
76.239879
69.215799
89.925408
89.337804
89.104690
76.580881
88.948761
88.478434
88.107736
87.241378
84.052990
85.683185
84.514068
79.686114
72.145839
79.293445
86.375748
88.264412
89.242786
89.559265
89.984706
89.378918
88.271727
86.617319
88.126295
86.690314
74.471672
71.293797
85.255844
87.498161
70.094405
88.836694
89.621364
89.779865
69.793496
77.931318
87.134988
85.960880
85.333262
73.171681
68.465544
79.718998
84.081637
86.510893
88.258616
89.488408
89.412947
88.181445
86.380579
83.807587
77.168349
73.384531
72.344748
85.572990
82.293557
85.726640
87.958872
89.440377
89.621270
89.621270
87.999497
85.705696
82.553980
72.999305
80.617861
85.205408
87.443271
88.703330
89.925061
88.147471
85.623223