# vtk DataFile Version 3.0
Dislocation network (FCC crystal) exported from OpenDiS
ASCII
DATASET UNSTRUCTURED_GRID
POINTS 4120 FLOAT
0.00000000e+00 0.00000000e+00 0.00000000e+00
1.95620000e+04 0.00000000e+00 0.00000000e+00
0.00000000e+00 1.95620000e+04 0.00000000e+00
0.00000000e+00 0.00000000e+00 1.95620000e+04
1.95620000e+04 1.95620000e+04 0.00000000e+00
1.95620000e+04 0.00000000e+00 1.95620000e+04
0.00000000e+00 1.95620000e+04 1.95620000e+04
1.95620000e+04 1.95620000e+04 1.95620000e+04
2.20595102e+03 6.18886584e+03 1.26297928e+04
2.27068485e+03 6.16925779e+03 1.26749186e+04
2.20595102e+03 6.18886584e+03 1.26297928e+04
2.27843507e+03 6.21129093e+03 1.25797338e+04
1.92826202e+03 1.70289370e+04 1.60329962e+04
1.86794694e+03 1.70664255e+04 1.60101696e+04
1.92826202e+03 1.70289370e+04 1.60329962e+04
1.96977769e+03 1.70031331e+04 1.60487080e+04
2.43870963e+03 6.10019804e+03 1.27738836e+04
2.34220072e+03 6.14276080e+03 1.27199374e+04
2.43870963e+03 6.10019804e+03 1.27738836e+04
2.56918476e+03 6.03997753e+03 1.28441382e+04
2.56918476e+03 6.03997753e+03 1.28441382e+04
2.69449423e+03 5.97994567e+03 1.29094158e+04
2.69449423e+03 5.97994567e+03 1.29094158e+04
2.81758842e+03 6.04169731e+03 1.28480733e+04
2.81758842e+03 6.04169731e+03 1.28480733e+04
2.95068499e+03 6.10461418e+03 1.27778936e+04
2.95068499e+03 6.10461418e+03 1.27778936e+04
3.04740855e+03 6.14771084e+03 1.27242667e+04
8.91856704e+02 1.70408245e+04 1.60255066e+04
8.40699162e+02 1.70087583e+04 1.60445979e+04
8.91856704e+02 1.70408245e+04 1.60255066e+04
9.32386705e+02 1.70662293e+04 1.60103813e+04
3.18303743e+03 6.19345365e+03 1.26343806e+04
3.11666048e+03 6.17337712e+03 1.26806810e+04
3.18303743e+03 6.19345365e+03 1.26343806e+04
3.11003997e+03 6.21578925e+03 1.25837187e+04
6.95946630e+03 4.33496095e+03 9.35640544e+03
7.04570954e+03 4.36576726e+03 9.41184236e+03
6.95946630e+03 4.33496095e+03 9.35640544e+03
6.91033880e+03 4.31741248e+03 9.32482641e+03
2.94559281e+03 6.28384945e+03 1.24873318e+04
3.04157608e+03 6.24132886e+03 1.25407945e+04
2.94559281e+03 6.28384945e+03 1.24873318e+04
2.81728874e+03 6.34366632e+03 1.24188446e+04
2.81728874e+03 6.34366632e+03 1.24188446e+04
2.69449423e+03 6.40317218e+03 1.23555559e+04
2.69449423e+03 6.40317218e+03 1.23555559e+04
2.57147704e+03 6.34158472e+03 1.24169856e+04
2.57147704e+03 6.34158472e+03 1.24169856e+04
2.44196384e+03 6.27990581e+03 1.24848199e+04
2.44196384e+03 6.27990581e+03 1.24848199e+04
2.34580611e+03 6.23669890e+03 1.25377708e+04
7.78919162e+03 4.33717575e+03 9.35490596e+03
7.83868128e+03 4.31956296e+03 9.32302908e+03
7.78919162e+03 4.33717575e+03 9.35490596e+03
7.70236112e+03 4.36807770e+03 9.41083450e+03
1.68050128e+04 1.68950453e+04 1.30969816e+04
1.67558832e+04 1.68874226e+04 1.30554747e+04
1.68050128e+04 1.68950453e+04 1.30969816e+04
1.67223210e+04 1.69107007e+04 1.31640180e+04
1.67558832e+04 1.68874226e+04 1.30554747e+04
1.67049759e+04 1.68743649e+04 1.30176251e+04
1.66165681e+04 1.68516884e+04 1.29518937e+04
1.67049759e+04 1.68743649e+04 1.30176251e+04
1.66165681e+04 1.68516884e+04 1.29518937e+04
1.64877985e+04 1.68107083e+04 1.28641043e+04
1.64877985e+04 1.68107083e+04 1.28641043e+04
1.63636710e+04 1.67674123e+04 1.27832728e+04
1.63636710e+04 1.67674123e+04 1.27832728e+04
1.62362520e+04 1.67202954e+04 1.27029707e+04
1.62362520e+04 1.67202954e+04 1.27029707e+04
1.61139059e+04 1.66727761e+04 1.26281439e+04
1.61139059e+04 1.66727761e+04 1.26281439e+04
1.59997105e+04 1.66262733e+04 1.25604513e+04
1.59997105e+04 1.66262733e+04 1.25604513e+04
1.58864004e+04 1.65779141e+04 1.24955004e+04
1.58864004e+04 1.65779141e+04 1.24955004e+04
1.57696613e+04 1.65257377e+04 1.24309377e+04
1.57696613e+04 1.65257377e+04 1.24309377e+04
1.56521323e+04 1.64706362e+04 1.23685101e+04
1.56521323e+04 1.64706362e+04 1.23685101e+04
1.55331875e+04 1.64122646e+04 1.23079370e+04
1.55331875e+04 1.64122646e+04 1.23079370e+04
1.54204365e+04 1.63544308e+04 1.22530198e+04
1.54204365e+04 1.63544308e+04 1.22530198e+04
1.52990753e+04 1.64117114e+04 1.23171004e+04
1.52990753e+04 1.64117114e+04 1.23171004e+04
1.51831323e+04 1.64653197e+04 1.23794351e+04
1.51831323e+04 1.64653197e+04 1.23794351e+04
1.50670693e+04 1.65170958e+04 1.24437221e+04
1.50670693e+04 1.65170958e+04 1.24437221e+04
1.49516299e+04 1.65666862e+04 1.25095711e+04
1.49516299e+04 1.65666862e+04 1.25095711e+04
1.48395620e+04 1.66130893e+04 1.25752359e+04
1.48395620e+04 1.66130893e+04 1.25752359e+04
1.47261130e+04 1.66583173e+04 1.26434569e+04
1.47261130e+04 1.66583173e+04 1.26434569e+04
1.46047970e+04 1.67048050e+04 1.27182851e+04
1.46047970e+04 1.67048050e+04 1.27182851e+04
1.44785486e+04 1.67512836e+04 1.27980550e+04
1.44785486e+04 1.67512836e+04 1.27980550e+04
1.43556364e+04 1.67944501e+04 1.28778006e+04
1.43556364e+04 1.67944501e+04 1.28778006e+04
1.42133692e+04 1.68397375e+04 1.29747804e+04
1.18342871e+04 1.19914580e+04 9.97782843e+03
1.18907236e+04 1.21138393e+04 9.91188368e+03
1.18342871e+04 1.19914580e+04 9.97782843e+03
1.18084868e+04 1.19244921e+04 1.00189940e+04
8.93718759e+03 1.48640501e+04 1.18353619e+04
8.96289795e+03 1.49076301e+04 1.18532316e+04
8.93718759e+03 1.48640501e+04 1.18353619e+04
8.87752919e+03 1.47629267e+04 1.17938970e+04
1.40358603e+04 1.68822768e+04 1.31097501e+04
1.40548398e+04 1.68791524e+04 1.30938949e+04
1.40358603e+04 1.68822768e+04 1.31097501e+04
1.41167433e+04 1.68986073e+04 1.31743027e+04
1.41167433e+04 1.68986073e+04 1.31743027e+04
1.42589751e+04 1.69393231e+04 1.32758187e+04
1.42589751e+04 1.69393231e+04 1.32758187e+04
1.43795543e+04 1.69806968e+04 1.33550241e+04
1.43795543e+04 1.69806968e+04 1.33550241e+04
1.44999781e+04 1.70252134e+04 1.34309314e+04
1.44999781e+04 1.70252134e+04 1.34309314e+04
1.46237209e+04 1.70731074e+04 1.35067801e+04
1.46237209e+04 1.70731074e+04 1.35067801e+04
1.47419105e+04 1.71206621e+04 1.35774150e+04
1.47419105e+04 1.71206621e+04 1.35774150e+04
1.48520049e+04 1.71665523e+04 1.36416192e+04
1.48520049e+04 1.71665523e+04 1.36416192e+04
1.49622458e+04 1.72139413e+04 1.37044711e+04
1.49622458e+04 1.72139413e+04 1.37044711e+04
1.50760638e+04 1.72644199e+04 1.37678105e+04
1.50760638e+04 1.72644199e+04 1.37678105e+04
1.51905406e+04 1.73170027e+04 1.38297045e+04
1.51905406e+04 1.73170027e+04 1.38297045e+04
1.53052526e+04 1.73717932e+04 1.38896260e+04
1.53052526e+04 1.73717932e+04 1.38896260e+04
1.54204365e+04 1.74292053e+04 1.39473978e+04
1.54204365e+04 1.74292053e+04 1.39473978e+04
1.55355146e+04 1.73737076e+04 1.38878176e+04
1.55355146e+04 1.73737076e+04 1.38878176e+04
1.56495378e+04 1.73206417e+04 1.38268601e+04
1.56495378e+04 1.73206417e+04 1.38268601e+04
1.57638818e+04 1.72693851e+04 1.37637729e+04
1.57638818e+04 1.72693851e+04 1.37637729e+04
1.58773853e+04 1.72202238e+04 1.36994307e+04
1.58773853e+04 1.72202238e+04 1.36994307e+04
1.59872622e+04 1.71740818e+04 1.36356957e+04
1.59872622e+04 1.71740818e+04 1.36356957e+04
1.60974129e+04 1.71292388e+04 1.35703880e+04
1.60974129e+04 1.71292388e+04 1.35703880e+04
1.62155194e+04 1.70828315e+04 1.34986889e+04
1.62155194e+04 1.70828315e+04 1.34986889e+04
1.63390679e+04 1.70361342e+04 1.34218376e+04
1.63390679e+04 1.70361342e+04 1.34218376e+04
1.64599424e+04 1.69925029e+04 1.33445944e+04
1.64599424e+04 1.69925029e+04 1.33445944e+04
1.65767279e+04 1.69532958e+04 1.32670160e+04
1.65767279e+04 1.69532958e+04 1.32670160e+04
1.67223210e+04 1.69107007e+04 1.31640180e+04
9.77918570e+03 1.58658571e+04 3.66586620e+03
9.72718020e+03 1.58011664e+04 3.67855134e+03
9.77918570e+03 1.58658571e+04 3.66586620e+03
9.83492602e+03 1.57960687e+04 3.65181813e+03
9.72718020e+03 1.58011664e+04 3.67855134e+03
9.62453502e+03 1.56564778e+04 3.72059478e+03
9.62453502e+03 1.56564778e+04 3.72059478e+03
9.54197074e+03 1.55300224e+04 3.76448590e+03
9.54197074e+03 1.55300224e+04 3.76448590e+03
9.46644375e+03 1.54096948e+04 3.80928651e+03
9.46644375e+03 1.54096948e+04 3.80928651e+03
9.39075766e+03 1.52859192e+04 3.85737602e+03
9.39075766e+03 1.52859192e+04 3.85737602e+03
9.31882478e+03 1.51654630e+04 3.90589930e+03
9.31882478e+03 1.51654630e+04 3.90589930e+03
9.25205096e+03 1.50511182e+04 3.95347028e+03
9.25205096e+03 1.50511182e+04 3.95347028e+03
9.18764659e+03 1.49385540e+04 4.00163013e+03
9.18764659e+03 1.49385540e+04 4.00163013e+03
9.12296032e+03 1.48231667e+04 4.05233121e+03
9.12296032e+03 1.48231667e+04 4.05233121e+03
9.05927384e+03 1.47069581e+04 4.10485326e+03
9.05927384e+03 1.47069581e+04 4.10485326e+03
8.99745454e+03 1.45912962e+04 4.15869586e+03
8.99745454e+03 1.45912962e+04 4.15869586e+03
8.93488087e+03 1.44717355e+04 4.21568296e+03
8.93488087e+03 1.44717355e+04 4.21568296e+03
8.99130790e+03 1.43569508e+04 4.15732537e+03
8.99130790e+03 1.43569508e+04 4.15732537e+03
9.05130356e+03 1.42396051e+04 4.09997531e+03
9.05130356e+03 1.42396051e+04 4.09997531e+03
9.11305709e+03 1.41227400e+04 4.04486370e+03
9.11305709e+03 1.41227400e+04 4.04486370e+03
9.17627761e+03 1.40064388e+04 3.99178308e+03
9.17627761e+03 1.40064388e+04 3.99178308e+03
9.23944742e+03 1.38931368e+04 3.94165085e+03
9.23944742e+03 1.38931368e+04 3.94165085e+03
9.30466067e+03 1.37789815e+04 3.89270884e+03
9.30466067e+03 1.37789815e+04 3.89270884e+03
9.37546972e+03 1.36581999e+04 3.84273623e+03
9.37546972e+03 1.36581999e+04 3.84273623e+03
9.45061525e+03 1.35335611e+04 3.79324302e+03
9.45061525e+03 1.35335611e+04 3.79324302e+03
9.52602359e+03 1.34121494e+04 3.74723960e+03
9.52602359e+03 1.34121494e+04 3.74723960e+03
9.60814312e+03 1.32855573e+04 3.70276709e+03
9.60814312e+03 1.32855573e+04 3.70276709e+03
9.71016497e+03 1.31413053e+04 3.66053694e+03
9.71016497e+03 1.31413053e+04 3.66053694e+03
9.76134262e+03 1.30776139e+04 3.64802311e+03
9.76134262e+03 1.30776139e+04 3.64802311e+03
9.81806666e+03 1.31487623e+04 3.63359869e+03
9.81806666e+03 1.31487623e+04 3.63359869e+03
9.91991457e+03 1.32935047e+04 3.59070423e+03
9.91991457e+03 1.32935047e+04 3.59070423e+03
1.00003743e+04 1.34175132e+04 3.54715546e+03
1.00003743e+04 1.34175132e+04 3.54715546e+03
1.00749956e+04 1.35370499e+04 3.50224009e+03
1.00749956e+04 1.35370499e+04 3.50224009e+03
[...]
CELL_DATA 2057
SCALARS SlipSystemID int 1
LOOKUP_TABLE default
0
10
7
10
10
10
10
10
7
7
7
7
7
7
10
4
4
10
10
10
7
7
7
1
1
4
1
4
4
4
4
4
4
4
4
4
4
4
4
1
1
1
1
1
1
1
1
1
1
5
5
8
8
1
4
4
4
4
4
4
4
4
4
4
4
4
1
1
1
1
1
1
1
1
1
1
1
5
11
5
5
5
5
5
5
5
5
5
5
5
11
11
11
11
11
11
11
11
11
11
11
11
5
5
5
5
5
5
5
5
5
5
5
5
11
11
11
11
11
11
11
11
11
11
11
2
8
2
2
2
2
2
2
2
8
8
8
8
8
8
8
8
2
2
2
2
2
2
2
8
8
8
8
8
8
6
9
6
6
6
6
6
6
6
9
9
9
9
9
9
9
9
6
6
6
6
6
6
6
6
9
9
9
9
9
9
9
3
12
3
3
3
3
3
3
3
3
3
3
12
12
12
12
12
12
12
12
6
6
9
9
12
3
3
3
3
3
3
3
3
3
3
12
12
12
12
12
12
12
12
12
10
7
10
10
10
10
10
7
7
7
7
7
7
10
10
10
10
10
10
7
7
7
7
7
4
1
4
4
4
4
4
4
4
4
4
4
1
1
1
1
1
1
1
1
1
1
1
4
4
4
4
4
4
4
4
4
4
4
1
1
1
1
1
1
1
1
1
1
5
11
5
5
5
5
5
11
11
11
11
11
11
5
5
5
5
5
5
11
11
11
11
11
2
8
2
2
2
2
2
8
8
8
8
8
8
2
2
2
2
2
2
8
8
8
8
8
6
9
6
6
6
6
9
9
9
9
9
6
3
3
6
6
6
6
9
9
12
12
9
9
4
4
3
12
3
3
3
3
3
12
12
12
12
12
12
3
3
3
3
3
3
3
12
12
12
12
12
12
10
7
1
1
10
10
10
10
10
7
7
7
7
7
7
7
10
10
10
10
10
10
10
7
7
7
7
7
2
2
4
1
8
8
4
4
4
4
4
1
1
1
1
1
3
3
1
4
12
12
4
4
4
4
4
1
1
1
1
1
10
10
5
11
5
5
5
5
5
11
11
11
11
11
11
5
5
5
5
5
5
11
11
11
11
11
2
8
5
5
2
2
2
8
8
8
8
8
2
2
2
2
2
8
8
8
8
6
9
6
6
6
6
6
6
9
9
9
9
9
9
9
6
6
6
6
6
6
6
9
9
9
9
9
9
3
12
3
3
3
3
3
3
3
12
12
12
12
12
12
12
12
3
3
3
3
3
3
3
3
3
12
12
12
12
12
12
12
12
10
7
10
10
10
10
7
7
7
7
7
10
10
10
10
10
7
7
7
7
4
1
4
4
4
4
4
4
1
1
1
1
1
1
1
4
11
11
4
4
4
4
4
4
4
1
1
1
1
1
1
1
3
3
5
11
5
5
5
5
5
11
11
11
11
11
11
5
5
5
5
5
5
11
11
11
11
11
2
8
2
2
2
2
2
8
8
8
8
8
8
2
2
2
2
2
2
8
8
8
8
8
6
9
6
6
6
6
6
9
9
9
9
9
9
6
6
6
6
6
6
9
9
9
9
9
3
12
3
3
3
3
3
3
3
3
3
12
12
12
12
12
12
12
12
12
12
3
3
3
3
3
3
3
3
3
3
12
12
12
12
12
12
12
12
12
10
7
10
10
10
10
10
10
7
7
7
7
7
7
7
10
10
10
10
10
10
10
7
7
7
7
7
7
4
1
4
4
4
4
4
4
1
1
1
1
1
1
1
4
4
4
4
4
4
4
1
1
1
1
1
1
5
11
5
5
5
5
5
5
11
11
11
11
11
11
11
5
5
5
5
5
5
11
11
11
11
11
2
8
2
2
2
2
2
2
2
8
8
8
8
8
8
8
8
2
2
2
2
2
2
2
2
8
8
8
8
8
8
8
6
9
6
6
6
6
6
9
9
9
9
9
9
9
6
6
6
6
6
6
6
9
9
9
9
9
9
3
12
3
3
3
3
3
12
12
12
12
12
12
3
3
3
3
3
3
12
12
12
12
12
10
7
10
10
10
10
10
7
7
7
7
7
7
10
10
10
10
10
10
7
7
7
7
7
4
1
4
4
4
4
1
1
1
1
1
4
8
8
4
4
4
4
4
1
1
1
1
1
5
11
5
5
5
5
11
11
11
11
11
5
5
5
5
5
11
11
11
11
2
8
2
2
2
2
2
2
2
8
8
8
8
8
8
8
8
2
2
2
2
2
2
2
2
8
8
8
8
8
8
8
6
9
6
6
6
6
6
9
9
9
9
9
9
6
6
6
6
6
9
9
9
9
9
3
12
3
3
3
3
3
12
12
12
12
12
12
3
3
3
3
3
3
3
12
12
12
12
12
12
10
7
10
10
10
10
10
10
7
7
7
7
7
7
7
10
10
10
10
10
10
10
7
7
7
7
7
7
4
1
4
4
4
4
4
1
1
1
1
1
1
4
4
4
4
4
4
1
1
1
1
1
5
11
5
5
5
5
5
5
5
11
11
11
11
11
11
11
11
5
5
5
5
5
5
5
5
5
11
11
11
11
11
11
11
11
2
8
2
2
2
2
2
2
8
8
8
8
8
8
8
2
2
2
2
2
2
2
8
8
8
8
8
8
6
9
6
6
6
6
6
9
9
9
9
9
9
6
6
6
6
6
6
6
9
9
9
9
9
9
3
12
3
3
3
3
3
12
12
12
12
12
12
3
3
3
3
3
3
12
12
12
12
12
10
7
10
10
10
10
10
10
7
7
7
7
7
7
7
10
10
10
10
10
10
10
7
7
7
7
7
7
4
1
4
4
4
4
4
1
1
1
1
1
1
4
4
4
4
4
1
1
1
1
1
1
5
11
5
5
5
5
5
5
5
11
11
11
11
11
11
11
11
11
5
5
5
5
5
5
5
5
11
11
11
11
11
11
11
11
2
8
2
2
2
2
2
8
8
8
8
8
8
2
2
2
2
2
2
8
8
8
8
8
6
9
6
6
6
6
9
9
9
9
9
6
6
6
6
6
9
9
9
9
3
12
3
3
3
3
3
3
12
12
12
12
12
12
12
3
3
3
3
3
3
3
12
12
12
12
12
10
7
10
10
10
10
10
7
7
7
7
7
10
10
10
10
10
7
7
7
7
4
1
4
4
4
4
1
1
1
1
1
4
4
4
4
1
1
1
5
11
5
5
5
5
5
11
11
11
11
11
11
5
5
5
5
11
11
11
11
11
11
2
8
2
2
2
2
8
8
8
8
8
2
2
2
2
2
2
8
8
8
8
8
6
9
6
6
6
6
6
6
9
9
9
9
9
9
9
9
6
6
6
6
6
6
6
9
9
9
9
9
9
3
12
3
3
3
3
3
12
12
12
12
12
12
3
3
3
3
3
3
12
12
12
12
12
10
7
10
10
10
10
7
7
7
7
7
10
10
10
10
10
7
7
7
7
4
1
4
4
4
4
4
4
1
1
1
1
1
1
1
4
4
4
4
4
4
4
1
1
1
1
1
1
5
11
5
5
5
5
5
11
11
11
11
11
11
5
5
5
5
5
11
11
11
11
2
2
2
2
2
8
8
8
8
8
8
2
2
2
2
2
8
8
8
8
11
6
9
6
6
6
6
9
9
9
9
9
6
6
6
6
9
9
9
3
12
3
3
3
3
12
12
12
12
12
3
3
3
3
3
3
12
12
12
12
12
10
7
10
10
10
10
10
10
7
7
7
7
7
7
7
10
10
10
10
10
10
10
7
7
7
7
7
7
4
4
4
1
1
1
4
4
4
4
4
1
1
1
5
11
5
5
5
5
5
5
11
11
11
11
11
11
11
5
5
5
5
5
5
5
11
11
11
11
11
11
2
8
2
2
2
2
2
2
2
2
8
8
8
8
8
8
8
8
8
2
2
2
2
2
2
2
2
8
8
8
8
8
8
8
6
9
6
6
6
6
9
9
9
9
9
6
6
6
6
6
9
9
9
9
3
12
3
3
3
3
12
12
12
12
12
3
3
3
3
3
3
12
12
12
12
12
10
7
10
10
10
10
10
10
7
7
7
7
7
7
7
7
10
10
10
10
10
10
10
10
7
7
7
7
7
7
7
4
1
4
4
4
4
4
4
4
4
4
1
1
1
1
1
1
1
1
1
4
4
4
4
4
4
4
4
4
1
1
1
1
1
1
1
1
5
5
5
5
5
11
11
11
11
11
11
11
5
5
5
5
5
11
11
11
11
2
8
2
2
2
2
8
8
8
8
8
8
2
2
2
2
2
8
8
8
8
6
9
6
6
6
6
9
9
9
9
9
6
6
6
6
6
9
9
9
9
3
12
3
3
3
3
12
12
12
12
12
3
3
3
3
12
12
12
12
10
7
10
10
10
10
10
10
10
7
7
7
7
7
7
7
7
10
10
10
10
10
10
10
10
7
7
7
7
7
7
7
4
1
4
4
4
4
1
1
1
1
1
4
4
4
4
4
1
1
1
1
5
11
5
5
5
5
11
11
11
11
11
5
5
5
5
5
11
11
11
11
1
1
5
5
1
1
12
12
6
9
4
1
4
1
4
4
1
11
2
2
5
11
1
5
10
7
10
7
10
7
7
4
1
4
1
2
2
2
8
2
8
3
12
10
7
4
1
4
1
2
8
10
7
SCALARS DislocationType int 1
LOOKUP_TABLE default
0
3
3
3
3
3
3
3
3
3
3
3
3
3
3
3
3
3
3
3
3
3
3
3
3
2
2
2
2
3
3
3
3
3
3
3
3
3
3
3
3
3
3
3
3
3
3
3
3
3
3
3
3
2
2
3
3
3
3
3
3
3
3
3
3
3
3
3
3
3
3
3
3
3
3
3
3
2
2
3
3
3
3
3
3
3
3
3
3
3
3
3
3
3
3
3
3
3
3
3
3
2
2
3
3
3
3
3
3
3
3
3
3
3
3
3
3
3
3
3
3
3
3
3
3
3
3
3
3
3
3
3
3
3
3
3
3
3
3
3
3
3
3
3
3
3
3
3
3
3
3
3
3
3
3
3
3
3
3
3
3
3
3
3
3
3
3
3
3
3
3
3
3
3
3
3
3
3
3
3
3
3
3
3
3
3
3
2
2
3
3
3
3
3
3
3
3
3
3
3
3
3
3
3
3
3
3
3
3
3
3
2
2
3
3
3
3
3
3
3
3
3
3
3
3
3
3
3
3
3
3
3
2
3
3
3
3
3
3
3
3
3
3
3
2
3
3
3
3
3
3
3
3
3
3
2
2
3
3
3
3
3
3
3
3
3
3
3
3
3
3
3
3
3
3
3
3
2
2
3
3
3
3
3
3
3
3
3
3
3
3
3
3
3
3
3
3
3
3
2
2
3
3
3
3
3
3
3
3
3
3
2
2
3
3
3
3
3
3
3
3
3
3
2
2
3
3
3
3
3
3
3
3
3
3
2
2
3
3
3
3
3
3
3
3
3
3
2
2
3
3
3
3
3
3
3
3
3
3
3
3
3
3
3
3
3
3
3
3
3
3
3
3
3
2
3
3
3
3
3
3
3
3
3
3
3
2
3
3
3
3
3
3
3
3
3
3
3
3
3
3
3
3
3
3
3
3
3
3
3
3
3
3
3
3
3
3
3
3
3
3
3
3
3
3
3
3
3
3
3
3
3
3
3
3
3
3
3
3
3
3
3
3
3
3
3
3
3
3
3
3
3
3
3
3
3
3
3
3
3
3
3
2
3
3
3
3
3
3
3
3
3
3
3
3
3
3
3
3
3
3
3
3
3
3
2
2
3
3
3
3
3
3
3
3
3
2
2
3
3
3
3
3
3
3
3
3
3
3
3
3
3
3
3
3
3
3
3
3
3
3
3
3
3
3
3
3
3
3
3
3
3
3
3
3
2
3
3
3
3
3
3
3
3
3
3
3
3
3
3
2
2
3
3
3
3
3
3
3
3
3
3
3
3
3
3
3
3
3
2
3
3
3
3
3
3
3
3
3
3
3
3
3
3
3
3
3
3
3
2
3
3
3
3
3
3
3
3
3
3
3
3
3
2
3
3
3
3
3
3
3
3
3
3
3
3
3
3
3
3
3
3
2
2
3
3
3
3
3
3
3
3
3
3
2
2
3
3
3
3
3
3
3
3
3
3
2
3
3
3
3
3
3
3
3
3
3
3
2
3
3
3
3
3
3
3
3
3
3
3
3
3
3
3
3
3
3
3
3
3
3
3
3
3
3
3
3
3
3
3
3
3
3
3
2
2
3
3
3
3
3
3
3
3
3
3
3
3
3
3
3
3
3
3
2
2
3
3
3
3
3
3
3
3
3
3
3
3
3
3
3
3
3
3
2
2
3
3
3
3
3
3
3
3
3
3
3
3
2
2
3
3
3
3
3
3
3
3
3
3
3
3
3
3
3
3
3
3
3
3
3
3
3
3
3
3
3
3
3
3
3
3
3
3
3
3
3
3
3
3
2
2
3
3
3
3
3
3
3
3
3
3
3
3
2
2
3
3
3
3
3
3
3
3
3
3
2
2
3
3
3
3
3
3
3
3
3
3
3
3
3
3
3
3
3
3
3
3
3
3
3
3
3
3
3
3
3
3
3
2
3
3
3
3
3
3
3
3
3
3
3
3
2
3
3
3
3
3
3
3
3
3
3
3
3
3
3
3
3
3
3
3
3
3
3
3
3
3
2
3
3
3
3
3
3
3
3
3
3
2
2
3
3
3
3
3
3
3
3
3
3
2
2
3
3
3
3
3
3
3
3
3
3
2
2
3
3
3
3
3
3
3
3
2
2
3
3
3
3
3
3
3
3
3
3
3
3
2
3
3
3
3
3
3
3
3
3
2
2
3
3
3
3
3
3
3
3
2
2
3
3
3
3
3
3
3
3
3
3
3
3
3
3
2
2
3
3
3
3
3
3
3
3
3
3
3
3
3
3
3
3
3
3
3
3
3
3
3
3
3
3
3
3
3
3
3
3
3
3
3
3
3
3
2
3
3
3
3
3
3
3
3
3
3
3
2
3
3
3
3
3
3
3
3
3
3
3
3
2
2
3
3
3
3
3
3
3
3
3
3
3
3
2
2
3
3
3
3
3
3
3
3
3
3
3
3
3
3
3
3
3
3
3
3
3
3
3
3
3
3
3
3
3
3
3
3
3
3
3
3
2
2
3
3
3
3
3
3
3
3
3
3
3
3
3
3
2
2
3
3
3
3
3
3
3
3
3
3
3
3
3
3
3
3
3
3
3
3
3
3
3
3
3
3
3
3
3
3
3
3
3
3
3
3
3
3
3
3
3
3
3
3
2
2
3
3
3
3
3
3
3
3
3
3
2
2
3
3
3
3
3
3
3
3
3
3
3
3
3
3
3
3
3
3
3
3
3
3
3
3
3
3
3
3
3
3
3
3
3
3
3
3
3
3
3
3
3
3
3
3
3
3
3
3
3
3
3
3
3
3
3
3
3
3
3
3
3
3
3
3
3
2
3
3
3
3
3
3
3
3
3
3
3
2
3
3
3
3
3
3
3
3
3
3
2
3
3
3
3
3
3
3
3
3
3
3
3
3
3
3
3
2
3
3
3
3
3
3
3
3
3
3
3
3
3
3
3
3
2
2
3
3
3
3
3
3
3
3
3
3
2
2
3
3
3
3
3
3
3
3
3
3
3
3
3
3
3
3
3
3
3
3
2
3
3
3
3
3
3
3
3
3
3
3
3
3
3
3
3
3
3
3
3
3
3
3
2
3
3
3
3
3
3
3
3
3
3
3
3
2
2
3
3
3
3
3
3
3
3
3
3
2
3
3
3
3
3
3
3
3
2
2
3
3
3
3
3
3
3
3
2
2
3
3
3
3
3
3
3
3
3
3
3
3
3
3
3
3
3
3
3
3
3
3
3
3
3
3
3
3
3
2
3
3
3
3
3
3
3
3
3
2
3
3
3
3
3
3
3
3
3
3
3
3
3
3
3
3
3
3
3
3
3
3
3
3
3
3
3
3
3
3
3
3
3
3
3
3
3
3
3
3
2
3
3
3
3
3
3
3
3
3
3
3
3
3
3
3
3
3
3
3
3
3
3
3
3
3
3
3
3
3
3
3
3
3
3
3
3
3
3
3
3
3
3
3
3
3
3
3
3
3
3
3
3
3
3
3
3
3
3
3
3
3
3
3
3
3
3
3
3
3
3
3
2
2
3
3
3
3
3
3
3
3
3
3
2
2
3
3
3
3
3
3
3
3
3
3
3
3
3
3
3
3
3
3
3
3
3
3
3
3
3
3
3
3
3
3
2
3
3
3
3
3
3
3
3
3
2
3
3
3
3
3
3
2
2
3
3
3
3
3
3
3
3
2
2
3
3
3
3
3
3
3
3
3
3
2
2
3
3
3
3
3
3
3
3
3
3
3
3
2
2
3
3
3
3
3
3
3
3
3
3
3
3
3
3
3
3
3
2
2
3
3
3
3
3
3
3
2
2
3
3
3
3
3
3
3
3
3
3
3
3
2
2
3
3
3
3
3
3
3
3
3
3
3
3
2
2
3
3
3
3
3
3
3
3
3
3
3
3
3
3
3
3
2
2
3
3
3
3
3
3
3
3
3
3
3
3
3
3
3
3
3
3
3
3
3
3
3
3
3
3
3
3
3
3
3
3
3
3
2
2
3
3
3
3
3
3
3
3
2
2
3
3
3
3
3
3
3
3
3
3
2
2
3
3
3
3
3
3
3
3
3
3
3
3
3
2
2
3
3
3
3
3
3
3
3
3
3
3
3
3
3
2
2
3
3
3
3
3
3
3
3
3
3
3
3
3
3
3
3
3
2
2
3
3
3
3
3
3
3
3
3
3
3
3
3
3
3
3
3
3
3
3
3
3
3
3
3
3
3
3
2
3
3
3
3
3
3
3
3
3
3
3
3
3
3
3
3
3
3
3
3
2
3
3
3
3
3
3
3
3
3
3
3
3
3
3
3
3
3
3
3
3
3
3
3
3
3
3
3
3
3
3
3
3
3
3
3
3
3
3
3
3
3
3
3
3
3
3
3
2
2
3
3
3
3
3
3
3
3
3
3
3
3
3
3
2
2
3
3
3
3
3
3
3
3
3
3
3
3
3
3
3
3
3
3
3
3
3
3
3
3
3
3
3
3
3
3
3
3
3
3
3
3
3
3
3
3
3
3
3
3
3
3
3
3
3
3
3
3
3
3
3
3
3
3
2
3
2
3
3
3
3
3
3
3
3
3
3
3
3
3
3
3
3
3
3
3
3
3
3
3
3
3
3
3
3
3
3
3
3
3
3
3
3
3
3
3
3
3
3
3
3
3
3
SCALARS CharacterAngle float 1
LOOKUP_TABLE default
0.0
77.178536
77.586604
82.010855
82.010855
86.104208
87.457694
88.615474
89.890063
88.195499
86.403357
81.669284
81.669284
77.150839
77.372118
80.636852
80.636852
86.234344
87.765721
88.981059
89.957585
88.428214
86.651761
80.552213
80.552213
68.287967
70.265074
74.295560
74.295560
78.147159
80.096652
81.448753
82.657091
83.885157
85.167696
86.494558
87.938873
89.387741
89.144338
88.147173
87.511824
86.438785
85.351263
84.332966
83.325988
82.318614
81.343487
80.250535
78.152371
87.431638
82.453790
84.069776
84.069776
68.830374
71.005825
76.136371
79.732576
81.441385
82.568896
83.567338
84.514064
85.370188
86.267452
87.311396
88.520667
89.896700
88.826625
87.711761
86.581458
85.584416
84.718436
83.877573
82.951920
81.979201
80.879237
79.258905
76.529806
70.662710
70.969939
76.405772
79.986617
81.613304
82.664992
83.598018
84.461970
85.237151
85.997196
86.825203
87.719837
88.454698
89.443651
89.254248
88.120620
87.118322
86.199125
85.295548
84.312063
83.223523
82.039974
80.257464
76.541725
70.685477
71.055224
76.767070
80.249101
81.835111
82.835408
83.684136
84.487833
85.196286
85.900332
86.667117
87.539527
88.320684
89.392695
89.206903
88.075665
87.100328
86.223271
85.353518
84.386892
83.339273
82.166373
80.420230
76.756492
75.755988
76.179900
85.447568
85.447568
88.594556
88.883338
88.986420
88.957665
88.772463
88.971402
89.530661
89.804021
89.699540
88.961834
85.237991
85.237991
75.402907
75.695310
85.264518
88.640864
89.153088
89.397687
89.379501
89.302323
89.381056
89.561285
89.702102
89.901816
89.263818
85.837115
75.262903
75.107483
82.718406
86.572897
87.895261
88.528537
88.835410
88.986688
89.060434
89.469217
89.958645
89.534795
89.005941
88.267721
86.857459
82.879204
75.331900
75.133426
82.613295
86.346003
87.691009
88.389366
88.774029
88.949075
88.992169
89.347877
89.962040
89.505595
88.878687
88.039511
86.552488
82.656473
70.895583
72.629125
78.465083
78.465083
82.636829
84.403596
85.412879
86.202270
86.904874
87.483861
88.054465
88.410942
89.265699
89.601001
88.742352
87.946227
87.021502
85.933512
84.555022
81.712427
83.839389
83.839389
83.809706
83.809706
70.211041
72.795989
78.888629
82.717376
84.310764
85.322992
86.227054
87.074566
87.789009
88.509670
89.276156
89.785886
88.924829
88.198240
87.508395
86.708654
85.870625
84.932125
83.449834
80.494719
75.461880
74.832892
83.229087
87.509081
89.217783
89.812982
88.769672
88.225479
88.249604
87.769955
86.486538
82.681691
75.184723
74.890818
82.778778
87.194013
89.063586
89.726546
88.555393
88.097143
88.131010
87.573911
86.274496
82.477081
73.415360
73.425221
84.012194
84.012194
86.979269
88.049678
88.558076
88.703305
88.733492
88.842187
89.069798
89.427314
89.882356
89.283344
88.923390
88.800297
88.767731
88.596844
88.110466
87.025181
84.098885
84.098885
73.528246
73.576551
84.236555
84.236555
87.265371
88.211792
88.377895
88.472774
88.677212
88.985062
89.285516
89.450732
89.965626
89.568678
89.206309
88.808627
88.562570
88.452354
88.207363
87.245150
84.145595
84.145595
72.438118
72.447373
81.254571
81.254571
86.380670
88.313660
89.772267
89.022611
87.851031
86.098995
81.127912
81.127912
72.372666
72.481241
81.294355
81.294355
86.294467
88.188957
89.738059
88.910465
87.710598
86.030569
81.208233
81.208233
74.974803
74.981572
82.535561
86.535451
88.214432
89.234127
89.969208
89.351082
88.808783
87.890960
86.295025
82.370966
74.860838
74.977978
82.557423
86.735321
88.371516
89.328642
89.922073
89.333541
88.886000
88.052259
86.525281
82.488627
74.249244
72.390820
82.200183
86.798636
88.817314
89.853333
88.945202
88.135950
86.397731
82.225544
75.039162
75.405116
83.603086
83.603086
82.891187
86.419023
88.460469
89.910179
88.927283
87.660473
83.608824
83.608824
86.058877
82.993177
80.720249
76.524401
75.706674
74.793760
84.994871
88.549676
89.218590
89.661599
89.947663
89.649737
89.439859
89.058400
88.348310
84.694289
75.436822
74.596040
84.253858
84.253858
88.254035
89.216842
89.863360
89.670205
89.385743
89.344304
88.926105
88.169052
84.425637
84.425637
81.130850
81.383542
76.729361
80.827097
89.344725
89.736148
89.794327
89.648594
89.544272
89.549646
89.585138
89.549350
89.805676
88.857400
85.396029
78.241551
78.511428
85.524279
88.788672
89.958153
89.905487
89.932976
89.993768
89.953155
89.915678
89.893434
89.979876
89.603375
81.371390
81.371390
79.409369
79.670669
81.921892
81.921892
88.165784
89.065336
89.740678
89.836476
89.878979
89.933053
89.893110
89.785921
89.128957
88.249422
82.875942
82.875942
79.506307
79.765886
82.638131
82.638131
88.336819
89.195410
89.643680
89.680622
89.727878
89.980417
89.851601
89.771868
89.206349
88.292733
81.858557
81.858557
75.587206
74.994920
83.124156
86.870003
88.332960
89.162475
89.694000
89.830694
89.264254
88.448445
87.017902
83.314753
75.754878
75.112151
82.904544
86.934129
88.364045
89.141679
89.524663
89.995932
89.376340
88.513267
86.988256
82.823228
71.424309
74.059361
83.575455
79.071105
85.012895
86.600692
88.330037
89.892573
87.586913
82.520309
82.520309
73.076080
73.569293
82.653348
82.653348
87.145186
88.624328
89.911649
87.692958
82.905330
82.905330
75.933490
75.713961
83.580623
87.338596
88.768062
89.589458
89.804072
89.202053
88.927744
88.944812
88.759405
88.130373
86.877800
83.380336
75.859568
75.737518
83.457118
87.400934
88.811898
89.582979
89.857657
89.199817
88.842855
88.832930
88.708277
88.203160
87.001144
83.305694
75.081656
73.743683
84.132335
87.880300
88.635703
89.039580
89.287770
89.482145
89.726712
89.864869
89.632508
89.411952
89.153274
88.731907
87.925855
84.098167
74.956209
73.828391
83.231252
83.231252
87.210758
88.194042
88.897896
89.342788
89.633019
89.782333
89.955535
89.706439
89.388476
88.927857
88.217644
87.236655
83.217725
83.217725
75.128234
74.924775
82.872949
87.014920
88.756433
89.860215
89.289711
88.448182
86.853189
82.880393
75.213336
75.048433
82.896208
87.115886
88.841164
89.790157
89.483998
88.619550
86.949083
82.755872
77.131917
73.635262
85.415891
88.476866
89.230554
89.462739
89.509797
89.547871
89.895519
89.818354
89.658870
89.263751
88.411353
85.284215
76.993442
73.411043
78.863310
83.337922
85.562200
88.058264
88.058264
89.288227
89.765375
89.841543
89.903001
89.866283
89.831594
89.785010
89.359709
88.169796
88.169796
85.670846
85.444577
85.444577
73.845556
73.653230
81.257838
85.570886
87.376989
88.484447
89.334849
89.795861
88.971437
88.027655
86.289889
82.026964
74.526925
74.016584
81.532514
85.662349
87.357948
88.250693
88.544353
89.263542
89.574745
88.250138
86.129020
81.440201
74.240168
75.210394
82.126510
86.577055
88.500504
89.739755
89.065876
88.408483
88.236671
87.421522
85.833819
81.729642
74.020628
75.144050
82.892051
87.278498
89.140879
89.826143
88.837373
88.324904
88.351345
87.918383
86.512203
82.657042
75.386897
75.519785
84.907870
88.567798
89.293873
89.733244
89.863751
89.875263
89.727610
89.306865
88.569538
84.889864
75.376746
75.528107
84.973156
88.420705
89.103934
89.609889
89.855838
89.827184
89.626860
89.097890
88.420221
84.981242
72.014384
72.181663
78.433997
82.659928
84.772906
86.082563
87.014124
87.818611
88.632077
89.554948
89.204042
88.303364
87.857081
87.234595
86.684939
86.107330
85.404295
84.351191
82.533742
78.593771
72.195573
72.485692
79.016260
83.150993
84.923232
85.906491
86.787261
87.676107
88.580804
89.508842
89.527633
88.803454
88.324589
87.555177
86.759682
85.969198
85.186582
84.257205
82.546284
78.536796
74.492648
74.119448
81.887608
86.370946
88.377494
89.471461
89.665907
88.708348
88.258954
88.322516
88.186949
87.504292
85.888109
81.861707
74.633183
74.388583
81.818331
86.056710
87.873748
88.996705
89.984264
89.011799
88.503910
88.405431
87.803042
86.950892
85.378818
81.391296
77.332320
76.598771
84.988899
88.490897
89.756324
89.649165
89.477820
89.225398
89.120555
89.262730
89.276063
89.027853
87.949888
84.704848
77.180316
76.605319
84.498908
88.112029
89.324801
89.989124
89.609555
89.140725
88.947772
89.012344
88.977526
88.614465
87.635967
84.338937
73.494828
73.742455
82.527014
82.527014
86.847597
88.042332
88.825182
89.232515
89.830765
89.352025
88.369856
86.985855
82.481156
82.481156
73.403838
73.622616
82.601159
86.801195
87.928609
88.764466
89.379719
89.939573
89.124046
88.222015
87.044513
82.786725
74.922350
74.965877
81.512297
85.270803
87.078696
88.156036
88.708637
88.828273
88.830884
89.060743
89.690165
89.713844
88.926022
87.677871
85.688843
81.750023
75.010943
75.153550
81.737780
85.545587
87.472179
88.551497
88.758734
88.789812
88.718880
88.993807
89.614281
89.980378
89.334267
87.978923
85.762588
81.674147
75.890156
74.526681
85.067729
88.537982
89.382960
89.964765
89.574387
89.263814
89.245258
88.845134
88.148896
84.854248
84.854248
75.788545
74.577083
84.293039
84.293039
88.285658
89.384426
89.852260
89.303349
89.208603
89.201538
88.794208
87.957669
84.193902
84.193902
76.043452
75.398377
82.884187
86.723094
88.555854
89.343470
89.390271
89.662837
89.834719
88.810849
86.785727
82.812697
75.988455
74.920868
81.997915
86.166464
88.128413
89.154405
89.480169
89.927273
89.495885
88.461385
86.573820
82.513973
74.602609
74.079963
81.209090
85.267423
87.533214
88.944208
89.639700
89.717179
88.993581
87.561445
85.219126
81.110735
74.559604
74.051114
80.717068
84.940245
87.292327
88.782616
89.562935
89.784273
88.929713
87.382080
85.028332
80.814566
73.592335
71.865317
81.367316
85.721626
87.588903
88.715917
89.988870
88.372826
86.200738
81.545681
73.644021
71.824113
85.923304
81.464009
82.590415
85.688767
85.688767
87.650441
88.731568
89.941218
88.443379
86.171174
86.171174
82.810008
74.691107
75.076400
84.051865
88.029734
89.152309
89.825274
89.720813
89.075040
87.939463
83.936756
74.598566
74.963220
84.105438
87.836821
88.931095
89.804347
89.495369
88.749034
87.781406
84.178951
74.119750
74.055897
81.265606
85.420918
87.129673
88.110932
88.813413
89.445775
89.881488
89.337155
89.007168
88.496525
87.884573
86.983732
85.316783
81.227733
74.121317
74.068232
81.225115
85.256052
86.953669
87.992800
88.802397
89.513944
89.851344
89.413636
89.092348
88.493016
87.755068
86.767173
85.146815
81.189048
75.359708
75.626381
84.950975
84.950975
88.560940
89.487513
89.594426
89.023084
88.739063
88.067873
84.697642
84.697642
75.219950
75.648141
85.118571
88.849302
89.795559
89.492068
89.132978
89.068672
88.402260
84.947959
84.947959
76.293733
74.209744
83.855835
87.658681
89.148483
89.830291
89.513182
89.033252
89.002925
88.514109
87.205354
83.568363
76.086233
74.119911
82.350190
82.350190
86.836172
88.674968
89.775520
89.306781
88.841753
88.695426
87.941717
86.440446
82.287259
82.287259
73.042715
72.954338
79.929233
84.166874
86.185489
87.575568
88.649092
89.523868
89.584349
88.681756
87.583013
86.175706
84.140001
79.890077
73.008541
72.918966
79.752579
83.992099
86.165969
87.701556
88.819838
89.651065
89.564156
88.774481
87.691369
86.175684
84.023341
79.796851
79.734407
79.679785
88.489264
89.397385
89.992310
89.882324
89.803518
89.620972
89.678690
89.650113
89.165442
88.354943
79.726972
79.738337
88.469134
89.242664
89.779151
89.912626
89.846462
89.527549
89.498812
89.434152
89.065223
88.353136
74.077196
73.760160
83.254991
87.236241
88.267255
88.975359
89.180209
89.235679