# vtk DataFile Version 3.0
Dislocation network (FCC crystal) exported from OpenDiS
ASCII
DATASET UNSTRUCTURED_GRID
POINTS 3830 FLOAT
0.00000000e+00 0.00000000e+00 0.00000000e+00
1.95620000e+04 0.00000000e+00 0.00000000e+00
0.00000000e+00 1.95620000e+04 0.00000000e+00
0.00000000e+00 0.00000000e+00 1.95620000e+04
1.95620000e+04 1.95620000e+04 0.00000000e+00
1.95620000e+04 0.00000000e+00 1.95620000e+04
0.00000000e+00 1.95620000e+04 1.95620000e+04
1.95620000e+04 1.95620000e+04 1.95620000e+04
2.20595102e+03 6.17170171e+03 1.26126287e+04
2.28216202e+03 6.14915423e+03 1.26662922e+04
2.20595102e+03 6.17170171e+03 1.26126287e+04
2.28553415e+03 6.19531132e+03 1.25566551e+04
2.28216202e+03 6.14915423e+03 1.26662922e+04
2.44403693e+03 6.08172041e+03 1.27607333e+04
2.44403693e+03 6.08172041e+03 1.27607333e+04
2.57072805e+03 6.02295710e+03 1.28286611e+04
2.57072805e+03 6.02295710e+03 1.28286611e+04
2.69449423e+03 5.96361565e+03 1.28930858e+04
2.69449423e+03 5.96361565e+03 1.28930858e+04
2.81687795e+03 6.02490293e+03 1.28319894e+04
2.81687795e+03 6.02490293e+03 1.28319894e+04
2.94521126e+03 6.08577211e+03 1.27645252e+04
2.94521126e+03 6.08577211e+03 1.27645252e+04
3.10741105e+03 6.15384517e+03 1.26703985e+04
3.10741105e+03 6.15384517e+03 1.26703985e+04
3.18303743e+03 6.17607451e+03 1.26170014e+04
3.18303743e+03 6.17607451e+03 1.26170014e+04
3.10280098e+03 6.19959611e+03 1.25602866e+04
3.10280098e+03 6.19959611e+03 1.25602866e+04
2.94282974e+03 6.26655426e+03 1.24672735e+04
2.94282974e+03 6.26655426e+03 1.24672735e+04
2.81703959e+03 6.32539530e+03 1.24003244e+04
2.81703959e+03 6.32539530e+03 1.24003244e+04
2.69449423e+03 6.38477558e+03 1.23371593e+04
2.69449423e+03 6.38477558e+03 1.23371593e+04
2.57219829e+03 6.32366300e+03 1.23983427e+04
2.57219829e+03 6.32366300e+03 1.23983427e+04
2.44569791e+03 6.26327942e+03 1.24644595e+04
2.44569791e+03 6.26327942e+03 1.24644595e+04
2.28553415e+03 6.19531132e+03 1.25566551e+04
1.68050128e+04 1.68456232e+04 1.31464037e+04
1.67294495e+04 1.68297925e+04 1.30866711e+04
1.68050128e+04 1.68456232e+04 1.31464037e+04
1.67199863e+04 1.68634134e+04 1.32136400e+04
1.67294495e+04 1.68297925e+04 1.30866711e+04
1.65921759e+04 1.67893748e+04 1.29898152e+04
1.65921759e+04 1.67893748e+04 1.29898152e+04
1.64692862e+04 1.67459204e+04 1.29103798e+04
1.64692862e+04 1.67459204e+04 1.29103798e+04
1.63510769e+04 1.67012202e+04 1.28368708e+04
1.63510769e+04 1.67012202e+04 1.28368708e+04
1.62309654e+04 1.66540274e+04 1.27639520e+04
1.62309654e+04 1.66540274e+04 1.27639520e+04
1.61128042e+04 1.66059587e+04 1.26938595e+04
1.61128042e+04 1.66059587e+04 1.26938595e+04
1.59976576e+04 1.65573427e+04 1.26273290e+04
1.59976576e+04 1.65573427e+04 1.26273290e+04
1.58827781e+04 1.65070467e+04 1.25627455e+04
1.58827781e+04 1.65070467e+04 1.25627455e+04
1.57669004e+04 1.64544955e+04 1.24994189e+04
1.57669004e+04 1.64544955e+04 1.24994189e+04
1.56507107e+04 1.63998405e+04 1.24378843e+04
1.56507107e+04 1.63998405e+04 1.24378843e+04
1.55339172e+04 1.63427461e+04 1.23781851e+04
1.55339172e+04 1.63427461e+04 1.23781851e+04
1.54204365e+04 1.62847088e+04 1.23227418e+04
1.54204365e+04 1.62847088e+04 1.23227418e+04
1.53020920e+04 1.63406782e+04 1.23851170e+04
1.53020920e+04 1.63406782e+04 1.23851170e+04
1.51867933e+04 1.63940005e+04 1.24470933e+04
1.51867933e+04 1.63940005e+04 1.24470933e+04
1.50715416e+04 1.64458108e+04 1.25105348e+04
1.50715416e+04 1.64458108e+04 1.25105348e+04
1.49565080e+04 1.64961278e+04 1.25752513e+04
1.49565080e+04 1.64961278e+04 1.25752513e+04
1.48423164e+04 1.65447654e+04 1.26408054e+04
1.48423164e+04 1.65447654e+04 1.26408054e+04
1.47275033e+04 1.65923227e+04 1.27080611e+04
1.47275033e+04 1.65923227e+04 1.27080611e+04
1.46100729e+04 1.66396565e+04 1.27781578e+04
1.46100729e+04 1.66396565e+04 1.27781578e+04
1.44909323e+04 1.66865353e+04 1.28504196e+04
1.44909323e+04 1.66865353e+04 1.28504196e+04
1.43733764e+04 1.67314932e+04 1.29230176e+04
1.43733764e+04 1.67314932e+04 1.29230176e+04
1.42525112e+04 1.67752501e+04 1.30001259e+04
1.42525112e+04 1.67752501e+04 1.30001259e+04
1.41147582e+04 1.68175562e+04 1.30955727e+04
1.41147582e+04 1.68175562e+04 1.30955727e+04
1.40358603e+04 1.68347606e+04 1.31572663e+04
1.40358603e+04 1.68347606e+04 1.31572663e+04
1.41205306e+04 1.68532854e+04 1.32234118e+04
1.41205306e+04 1.68532854e+04 1.32234118e+04
1.42580547e+04 1.68965477e+04 1.33176736e+04
1.42580547e+04 1.68965477e+04 1.33176736e+04
1.43773741e+04 1.69405019e+04 1.33930388e+04
1.43773741e+04 1.69405019e+04 1.33930388e+04
1.44946138e+04 1.69863557e+04 1.34644247e+04
1.44946138e+04 1.69863557e+04 1.34644247e+04
1.46136957e+04 1.70345163e+04 1.35353461e+04
1.46136957e+04 1.70345163e+04 1.35353461e+04
1.47308033e+04 1.70830840e+04 1.36038860e+04
1.47308033e+04 1.70830840e+04 1.36038860e+04
1.48449373e+04 1.71316240e+04 1.36694799e+04
1.48449373e+04 1.71316240e+04 1.36694799e+04
1.49589518e+04 1.71813766e+04 1.37337418e+04
1.49589518e+04 1.71813766e+04 1.37337418e+04
1.50739401e+04 1.72329513e+04 1.37971555e+04
1.50739401e+04 1.72329513e+04 1.37971555e+04
1.51894267e+04 1.72863610e+04 1.38592324e+04
1.51894267e+04 1.72863610e+04 1.38592324e+04
1.53047954e+04 1.73415943e+04 1.39193677e+04
1.53047954e+04 1.73415943e+04 1.39193677e+04
1.54204365e+04 1.73989533e+04 1.39776498e+04
1.54204365e+04 1.73989533e+04 1.39776498e+04
1.55362225e+04 1.73424194e+04 1.39183979e+04
1.55362225e+04 1.73424194e+04 1.39183979e+04
1.56512804e+04 1.72880364e+04 1.38577229e+04
1.56512804e+04 1.72880364e+04 1.38577229e+04
1.57666969e+04 1.72353281e+04 1.37950147e+04
1.57666969e+04 1.72353281e+04 1.37950147e+04
1.58815135e+04 1.71845225e+04 1.37310037e+04
1.58815135e+04 1.71845225e+04 1.37310037e+04
1.59952858e+04 1.71356051e+04 1.36661489e+04
1.59952858e+04 1.71356051e+04 1.36661489e+04
1.61094628e+04 1.70878424e+04 1.35997346e+04
1.61094628e+04 1.70878424e+04 1.35997346e+04
1.62265765e+04 1.70401556e+04 1.35303076e+04
1.62265765e+04 1.70401556e+04 1.35303076e+04
1.63456003e+04 1.69929814e+04 1.34584580e+04
1.63456003e+04 1.69929814e+04 1.34584580e+04
1.64625786e+04 1.69482440e+04 1.33862171e+04
1.64625786e+04 1.69482440e+04 1.33862171e+04
1.65826833e+04 1.69051655e+04 1.33091909e+04
1.65826833e+04 1.69051655e+04 1.33091909e+04
1.67199863e+04 1.68634134e+04 1.32136400e+04
9.79053071e+03 1.58658571e+04 3.67721120e+03
9.72738026e+03 1.57846029e+04 3.69531494e+03
9.79053071e+03 1.58658571e+04 3.67721120e+03
9.85249838e+03 1.57860608e+04 3.65938259e+03
9.72738026e+03 1.57846029e+04 3.69531494e+03
9.62979710e+03 1.56409239e+04 3.74141074e+03
9.62979710e+03 1.56409239e+04 3.74141074e+03
9.55461402e+03 1.55206288e+04 3.78652276e+03
9.55461402e+03 1.55206288e+04 3.78652276e+03
9.48493750e+03 1.54049918e+04 3.83248321e+03
9.48493750e+03 1.54049918e+04 3.83248321e+03
9.41591376e+03 1.52873040e+04 3.88114727e+03
9.41591376e+03 1.52873040e+04 3.88114727e+03
9.34804584e+03 1.51695423e+04 3.93104107e+03
9.34804584e+03 1.51695423e+04 3.93104107e+03
9.28182954e+03 1.50527732e+04 3.98159389e+03
9.28182954e+03 1.50527732e+04 3.98159389e+03
9.21752195e+03 1.49374999e+04 4.03255957e+03
9.21752195e+03 1.49374999e+04 4.03255957e+03
9.15394704e+03 1.48217714e+04 4.08471316e+03
9.15394704e+03 1.48217714e+04 4.08471316e+03
9.09126547e+03 1.47056201e+04 4.13818289e+03
9.09126547e+03 1.47056201e+04 4.13818289e+03
9.02993454e+03 1.45897818e+04 4.19269028e+03
9.02993454e+03 1.45897818e+04 4.19269028e+03
8.96809687e+03 1.44717355e+04 4.24889897e+03
8.96809687e+03 1.44717355e+04 4.24889897e+03
9.02431705e+03 1.43561446e+04 4.18952825e+03
9.02431705e+03 1.43561446e+04 4.18952825e+03
9.08288986e+03 1.42398648e+04 4.13182126e+03
9.08288986e+03 1.42398648e+04 4.13182126e+03
9.14334478e+03 1.41232456e+04 4.07565704e+03
9.14334478e+03 1.41232456e+04 4.07565704e+03
9.20506812e+03 1.40069105e+04 4.02104526e+03
9.20506812e+03 1.40069105e+04 4.02104526e+03
9.26776247e+03 1.38911510e+04 3.96798011e+03
9.26776247e+03 1.38911510e+04 3.96798011e+03
9.33232237e+03 1.37744253e+04 3.91581427e+03
9.33232237e+03 1.37744253e+04 3.91581427e+03
9.39905350e+03 1.36562553e+04 3.86437548e+03
9.39905350e+03 1.36562553e+04 3.86437548e+03
9.46738572e+03 1.35380274e+04 3.81447978e+03
9.46738572e+03 1.35380274e+04 3.81447978e+03
9.53675678e+03 1.34217401e+04 3.76756347e+03
9.53675678e+03 1.34217401e+04 3.76756347e+03
9.61140284e+03 1.33015249e+04 3.72199432e+03
9.61140284e+03 1.33015249e+04 3.72199432e+03
9.70797112e+03 1.31588101e+04 3.67584784e+03
9.70797112e+03 1.31588101e+04 3.67584784e+03
9.77090490e+03 1.30776139e+04 3.65758539e+03
9.77090490e+03 1.30776139e+04 3.65758539e+03
9.83631621e+03 1.31619700e+04 3.63864057e+03
9.83631621e+03 1.31619700e+04 3.63864057e+03
9.93226376e+03 1.33038805e+04 3.59267764e+03
9.93226376e+03 1.33038805e+04 3.59267764e+03
1.00066506e+04 1.34231240e+04 3.54782096e+03
1.00066506e+04 1.34231240e+04 3.54782096e+03
1.00760566e+04 1.35384540e+04 3.50189696e+03
1.00760566e+04 1.35384540e+04 3.50189696e+03
1.01449457e+04 1.36559916e+04 3.45324843e+03
1.01449457e+04 1.36559916e+04 3.45324843e+03
1.02128849e+04 1.37738996e+04 3.40327965e+03
1.02128849e+04 1.37738996e+04 3.40327965e+03
1.02789097e+04 1.38901589e+04 3.35304513e+03
1.02789097e+04 1.38901589e+04 3.35304513e+03
1.03434225e+04 1.40055773e+04 3.30213948e+03
1.03434225e+04 1.40055773e+04 3.30213948e+03
1.04071481e+04 1.41213136e+04 3.25012892e+03
1.04071481e+04 1.41213136e+04 3.25012892e+03
1.04698248e+04 1.42370673e+04 3.19705180e+03
1.04698248e+04 1.42370673e+04 3.19705180e+03
1.05315188e+04 1.43532791e+04 3.14253409e+03
1.05315188e+04 1.43532791e+04 3.14253409e+03
1.05937987e+04 1.44717355e+04 3.08635763e+03
1.05937987e+04 1.44717355e+04 3.08635763e+03
1.05382186e+04 1.45863523e+04 3.14539437e+03
1.05382186e+04 1.45863523e+04 3.14539437e+03
1.04793161e+04 1.47033598e+04 3.20349936e+03
1.04793161e+04 1.47033598e+04 3.20349936e+03
1.04190019e+04 1.48197904e+04 3.25961568e+03
1.04190019e+04 1.48197904e+04 3.25961568e+03
1.03572629e+04 1.49360842e+04 3.31417053e+03
1.03572629e+04 1.49360842e+04 3.31417053e+03
[...]
CELL_DATA 1912
SCALARS SlipSystemID int 1
LOOKUP_TABLE default
0
10
7
10
10
10
7
7
7
7
10
10
10
10
7
7
7
4
1
4
4
4
4
4
4
4
4
4
4
4
1
1
1
1
1
1
1
1
1
1
1
1
4
4
4
4
4
4
4
4
4
4
4
4
1
1
1
1
1
1
1
1
1
1
1
5
11
5
5
5
5
5
5
5
5
5
5
5
11
11
11
11
11
11
11
11
11
11
11
11
5
5
5
5
5
5
5
5
5
5
5
5
11
11
11
11
11
11
11
11
11
11
11
2
8
2
2
2
2
2
2
8
8
8
8
8
8
8
2
2
2
2
2
2
2
8
8
8
8
8
8
6
9
6
6
6
6
6
6
6
9
9
9
9
9
9
9
9
6
6
6
6
6
6
6
6
9
9
9
9
9
9
9
3
12
3
3
3
3
3
3
3
3
3
12
12
12
12
12
12
12
12
12
12
3
3
3
3
3
3
3
3
3
3
12
12
12
12
12
12
12
12
12
10
7
10
10
10
10
10
7
7
7
7
7
7
10
10
10
10
10
10
7
7
7
7
7
4
1
4
4
4
4
4
4
4
4
4
1
1
1
1
1
1
1
1
1
1
4
4
4
4
4
4
4
4
4
4
1
1
1
1
1
1
1
1
1
5
11
5
5
5
5
11
11
11
11
11
5
5
5
5
5
11
11
11
11
2
8
2
2
2
2
2
8
8
8
8
8
8
2
2
2
2
2
2
8
8
8
8
8
6
9
6
6
6
6
9
9
9
9
9
6
6
6
6
6
9
9
9
9
3
12
3
3
3
3
3
12
12
12
12
12
12
3
3
3
3
3
3
12
12
12
12
12
10
7
10
10
10
10
10
7
7
7
7
7
7
10
10
10
10
10
10
7
7
7
7
7
4
1
4
4
4
4
4
1
1
1
1
1
1
4
4
4
4
4
4
1
1
1
1
1
5
11
5
5
5
5
5
11
11
11
11
11
11
5
5
5
5
5
5
11
11
11
11
11
2
8
2
2
2
8
8
8
8
2
2
2
2
8
8
8
6
9
6
6
6
6
6
6
9
9
9
9
9
9
9
6
6
6
6
6
6
6
9
9
9
9
9
9
3
12
3
3
3
3
3
3
3
12
12
12
12
12
12
12
12
3
3
3
3
3
3
3
3
12
12
12
12
12
12
12
10
7
10
10
10
10
7
7
7
7
7
10
10
10
10
10
7
7
7
7
4
1
4
4
4
4
4
4
1
1
1
1
1
1
1
4
4
4
4
4
4
4
1
1
1
1
1
1
5
11
5
5
5
5
5
11
11
11
11
11
11
5
5
5
5
5
5
11
11
11
11
11
2
8
2
2
2
2
2
8
8
8
8
8
8
2
2
2
2
2
2
8
8
8
8
8
6
9
6
6
6
6
6
9
9
9
9
9
9
6
6
6
6
6
6
9
9
9
9
9
3
12
3
3
3
3
3
3
3
3
3
12
12
12
12
12
12
12
12
12
12
3
3
3
3
3
3
3
3
3
3
12
12
12
12
12
12
12
12
12
10
7
10
10
10
10
10
10
7
7
7
7
7
7
7
10
10
10
10
10
10
10
7
7
7
7
7
7
4
1
4
4
4
4
4
4
1
1
1
1
1
1
1
4
4
4
4
4
4
4
1
1
1
1
1
1
5
11
5
5
5
5
5
11
11
11
11
11
11
5
5
5
5
5
5
11
11
11
11
11
2
8
2
2
2
2
2
2
8
8
8
8
8
8
8
2
2
2
2
2
2
2
8
8
8
8
8
8
6
9
6
6
6
6
6
9
9
9
9
9
9
6
6
6
6
6
6
9
9
9
9
9
3
12
3
3
3
3
12
12
12
12
12
3
3
3
3
3
12
12
12
12
10
7
10
10
10
10
7
7
7
7
7
10
10
10
10
10
7
7
7
7
4
1
4
4
4
4
1
1
1
1
1
4
4
4
4
4
1
1
1
1
5
11
5
5
5
5
11
11
11
11
11
5
5
5
5
5
11
11
11
11
2
8
2
2
2
2
2
2
2
8
8
8
8
8
8
8
8
2
2
2
2
2
2
2
2
8
8
8
8
8
8
8
6
9
6
6
6
6
9
9
9
9
9
6
6
6
6
6
9
9
9
9
3
12
3
3
3
3
3
12
12
12
12
12
12
3
3
3
3
3
3
12
12
12
12
12
10
7
10
10
10
10
10
10
7
7
7
7
7
7
7
10
10
10
10
10
10
10
7
7
7
7
7
7
4
1
4
4
4
4
4
1
1
1
1
1
1
4
4
4
4
4
4
1
1
1
1
1
5
11
5
5
5
5
5
5
5
11
11
11
11
11
11
11
11
5
5
5
5
5
5
5
5
11
11
11
11
11
11
11
2
8
2
2
2
2
2
8
8
8
8
8
8
2
2
2
2
2
2
8
8
8
8
8
6
9
6
6
6
6
6
9
9
9
9
9
9
6
6
6
6
6
6
9
9
9
9
9
3
12
3
3
3
3
3
12
12
12
12
12
12
3
3
3
3
3
3
12
12
12
12
12
10
7
10
10
10
10
10
10
7
7
7
7
7
7
7
10
10
10
10
10
10
10
7
7
7
7
7
7
4
1
4
4
4
4
4
1
1
1
1
1
1
4
4
4
4
4
4
1
1
1
1
1
5
11
5
5
5
5
5
5
5
11
11
11
11
11
11
11
11
5
5
5
5
5
5
5
5
11
11
11
11
11
11
11
2
8
2
2
2
2
8
8
8
8
8
2
2
2
2
2
8
8
8
8
6
9
6
6
6
6
9
9
9
9
9
6
6
6
6
6
9
9
9
9
3
12
3
3
3
3
3
12
12
12
12
12
12
3
3
3
3
3
3
12
12
12
12
12
10
7
10
10
10
10
7
7
7
7
7
10
10
10
10
10
7
7
7
7
4
1
4
4
4
4
1
1
1
1
1
4
4
4
4
4
1
1
1
1
5
11
5
5
5
5
5
11
11
11
11
11
11
5
5
5
5
5
5
11
11
11
11
11
2
8
2
2
2
2
2
8
8
8
8
8
8
2
2
2
2
2
2
8
8
8
8
8
6
9
6
6
6
6
6
6
9
9
9
9
9
9
9
6
6
6
6
6
6
6
9
9
9
9
9
9
3
12
3
3
3
3
3
12
12
12
12
12
12
3
3
3
3
3
3
12
12
12
12
12
10
7
10
10
10
10
7
7
7
7
7
10
10
10
10
10
7
7
7
7
4
1
4
4
4
4
4
1
1
1
1
1
1
4
4
4
4
4
4
1
1
1
1
1
5
11
5
5
5
5
11
11
11
11
11
5
5
5
5
5
11
11
11
11
2
8
2
2
2
2
8
8
8
8
8
2
2
2
2
2
8
8
8
8
8
6
9
6
6
6
6
9
9
9
9
9
6
6
6
6
6
9
9
9
9
3
12
3
3
3
3
3
12
12
12
12
12
12
3
3
3
3
3
3
12
12
12
12
12
10
7
10
10
10
10
10
10
7
7
7
7
7
7
7
10
10
10
10
10
10
10
7
7
7
7
7
7
4
1
4
4
4
1
1
1
1
1
4
4
4
4
1
1
1
5
11
5
5
5
5
5
5
11
11
11
11
11
11
11
5
5
5
5
5
5
5
11
11
11
11
11
11
2
8
2
2
2
2
2
2
2
2
8
8
8
8
8
8
8
8
8
2
2
2
2
2
2
2
2
2
8
8
8
8
8
8
8
8
6
9
6
6
6
6
9
9
9
9
9
6
6
6
6
6
9
9
9
9
3
12
3
3
3
3
3
12
12
12
12
12
12
3
3
3
3
3
3
12
12
12
12
12
10
7
10
10
10
10
10
10
10
7
7
7
7
7
7
7
7
10
10
10
10
10
10
10
10
7
7
7
7
7
7
7
4
1
4
4
4
4
4
4
4
4
1
1
1
1
1
1
1
1
1
4
4
4
4
4
4
4
4
4
1
1
1
1
1
1
1
1
5
11
5
5
5
5
5
11
11
11
11
11
11
5
5
5
5
5
5
5
11
11
11
11
11
2
8
2
2
2
2
8
8
8
8
8
2
2
2
2
2
8
8
8
8
6
9
6
6
6
6
9
9
9
9
9
6
6
6
6
6
9
9
9
9
3
12
3
3
3
3
12
12
12
12
12
3
3
3
3
3
12
12
12
12
10
7
10
10
10
10
10
10
10
7
7
7
7
7
7
7
7
10
10
10
10
10
10
10
10
7
7
7
7
7
7
7
4
1
4
4
4
4
1
1
1
1
1
4
4
4
4
4
1
1
1
1
5
11
5
5
5
5
11
11
11
11
11
5
5
5
5
5
11
11
11
11
SCALARS DislocationType int 1
LOOKUP_TABLE default
0
3
3
3
3
3
3
3
3
3
3
3
3
3
3
3
3
2
2
3
3
3
3
3
3
3
3
3
3
3
3
3
3
3
3
3
3
3
3
3
3
2
2
3
3
3
3
3
3
3
3
3
3
3
3
3
3
3
3
3
3
3
3
3
3
2
2
3
3
3
3
3
3
3
3
3
3
3
3
3
3
3
3
3
3
3
3
3
3
2
2
3
3
3
3
3
3
3
3
3
3
3
3
3
3
3
3
3
3
3
3
3
3
3
3
3
3
3
3
3
3
3
3
3
3
3
3
3
3
3
3
3
3
3
3
3
3
3
3
3
3
3
3
3
3
3
3
3
3
3
3
3
3
3
3
3
3
3
3
3
3
3
3
3
3
3
3
3
3
3
3
3
3
2
2
3
3
3
3
3
3
3
3
3
3
3
3
3
3
3
3
3
3
2
2
3
3
3
3
3
3
3
3
3
3
3
3
3
3
3
3
3
3
3
3
3
3
3
3
3
3
3
3
3
3
3
3
3
3
3
3
3
3
3
3
3
3
3
3
3
3
3
3
3
3
3
3
3
3
3
3
3
3
3
3
3
3
3
3
3
3
3
3
3
3
3
3
3
3
3
3
3
3
3
3
3
3
2
2
3
3
3
3
3
3
3
3
2
2
3
3
3
3
3
3
3
3
3
3
3
3
3
3
3
3
3
3
3
3
3
3
3
3
3
3
3
3
3
3
3
3
2
2
3
3
3
3
3
3
3
3
2
2
3
3
3
3
3
3
3
3
3
3
3
3
3
3
3
3
3
3
3
3
3
3
3
3
3
3
3
3
3
3
3
3
3
3
3
3
3
3
3
3
3
3
3
3
3
3
3
3
3
3
3
3
3
3
3
3
3
3
3
3
3
3
3
3
3
3
3
3
3
3
3
3
3
3
3
3
3
3
3
3
3
3
3
3
3
3
3
3
3
3
3
3
3
3
3
3
3
3
3
3
3
3
3
3
2
2
3
3
3
3
3
3
2
2
3
3
3
3
3
3
3
3
3
3
3
3
3
3
3
3
3
3
3
3
3
3
3
3
3
3
3
3
3
3
3
3
3
3
3
3
3
3
3
3
3
3
3
3
3
3
3
3
3
3
3
3
3
3
3
3
3
3
3
3
3
3
3
3
3
3
3
3
3
3
3
3
3
3
3
3
3
3
3
3
3
3
3
3
3
3
3
3
3
3
3
3
3
3
3
3
3
3
3
3
3
3
3
3
3
3
3
3
3
3
3
3
3
3
3
3
3
3
3
3
3
3
3
3
3
3
3
3
3
3
3
3
3
3
3
3
3
3
3
3
3
3
3
3
3
3
3
3
3
3
3
3
3
3
3
3
3
3
3
3
3
3
3
3
3
3
3
3
3
3
3
3
3
3
3
3
3
3
3
3
3
3
3
3
3
3
2
2
3
3
3
3
3
3
3
3
3
3
3
3
3
3
3
3
3
3
2
2
3
3
3
3
3
3
3
3
3
3
3
3
3
3
3
3
3
3
3
3
3
3
3
3
3
3
3
3
3
3
3
3
3
3
3
3
3
3
3
3
3
3
3
3
3
3
3
3
3
3
3
3
3
3
3
3
3
3
3
3
3
3
3
3
3
3
3
3
3
3
3
3
3
3
3
3
3
3
3
3
3
3
3
3
3
3
3
3
3
3
3
3
3
3
3
3
3
3
3
3
3
3
3
3
3
3
3
3
3
3
3
3
3
3
3
3
3
3
3
3
3
3
3
3
3
3
3
3
3
3
3
3
3
3
3
3
3
3
3
3
3
3
3
3
3
3
3
3
3
3
3
3
3
3
3
3
3
3
3
3
3
3
3
3
3
3
3
3
3
3
3
3
3
3
3
3
3
3
3
3
3
3
3
3
3
3
3
3
3
3
2
2
3
3
3
3
3
3
3
3
2
2
3
3
3
3
3
3
3
3
3
3
3
3
3
3
3
3
3
3
3
3
3
3
3
3
3
3
3
3
3
3
3
3
3
3
3
3
3
3
3
3
3
3
3
3
3
3
3
3
3
3
3
3
3
3
3
3
3
3
3
3
3
3
3
3
3
3
3
3
3
3
3
3
3
3
3
3
3
3
3
3
3
3
3
3
3
3
3
3
3
3
3
3
3
3
3
3
3
3
3
3
3
3
3
3
2
2
3
3
3
3
3
3
3
3
3
3
3
3
2
2
3
3
3
3
3
3
3
3
3
3
3
3
3
3
3
3
3
3
3
3
3
3
3
3
3
3
3
3
3
3
3
3
3
3
3
3
3
3
3
3
3
3
3
3
3
3
3
3
3
3
3
3
3
3
3
3
3
3
3
3
3
3
3
3
3
3
3
3
3
3
3
3
3
3
3
3
3
3
3
3
3
3
3
3
3
3
3
3
3
3
3
3
3
3
3
3
3
3
3
3
3
3
3
3
3
3
3
3
3
3
3
3
3
3
3
3
3
3
3
3
3
3
3
3
3
3
3
3
3
3
3
3
3
3
3
3
3
3
3
3
3
3
3
3
3
3
3
3
3
3
3
3
3
3
3
3
3
3
3
3
3
3
3
3
3
3
3
3
3
3
3
3
3
3
3
3
3
3
3
3
3
3
3
3
3
3
3
3
3
3
3
3
3
3
3
3
3
3
3
3
3
3
3
3
3
3
3
3
3
3
3
3
3
3
3
3
3
3
3
3
3
3
3
3
3
3
3
3
3
3
3
3
3
3
3
3
3
3
3
3
3
3
3
3
3
3
3
3
3
3
3
3
3
3
3
3
3
3
3
3
3
3
3
3
3
3
3
3
3
3
3
3
3
3
3
3
3
3
3
3
3
3
3
3
3
3
3
3
3
3
3
3
3
3
3
3
3
3
3
3
3
3
3
3
3
3
3
3
2
2
3
3
3
3
3
3
3
3
2
2
3
3
3
3
3
3
3
3
3
3
3
3
3
3
3
3
3
3
3
3
3
3
3
3
3
3
3
3
3
3
3
3
3
3
3
3
3
3
3
3
3
3
3
3
3
3
3
3
3
3
3
3
3
3
3
3
3
3
3
3
3
3
3
3
3
3
3
3
3
3
3
3
3
3
3
3
3
3
3
3
3
3
3
3
3
3
3
3
3
3
3
3
3
3
3
3
3
3
3
3
3
3
3
3
3
3
3
3
3
3
3
3
3
3
3
3
3
3
3
3
3
3
3
3
3
3
3
3
3
3
3
3
3
3
3
3
3
3
3
3
3
3
3
3
3
3
3
3
3
3
3
3
2
2
3
3
3
3
3
3
3
3
2
2
3
3
3
3
3
3
3
3
3
3
3
3
3
3
3
3
3
3
3
3
3
3
3
3
3
3
3
3
3
3
3
3
3
3
3
3
3
3
3
3
3
3
3
3
3
3
3
3
3
3
3
3
3
3
3
3
3
3
3
3
3
3
3
3
3
3
3
3
3
3
3
3
3
3
3
3
3
3
3
3
3
3
3
3
3
3
3
3
3
3
3
3
3
3
3
3
3
3
3
3
3
3
3
3
3
3
3
3
3
3
3
3
3
3
3
3
3
3
3
3
3
3
3
3
3
3
3
3
3
3
3
3
3
3
3
3
3
3
3
3
3
3
3
3
3
3
2
2
3
3
3
3
3
3
3
3
3
3
3
3
3
3
3
3
2
2
3
3
3
3
3
3
3
3
3
3
3
3
3
3
3
3
3
3
3
3
3
3
3
3
3
3
3
3
3
3
3
3
3
3
3
3
3
3
3
3
3
3
3
3
3
3
3
3
3
3
3
3
3
3
3
3
3
3
3
3
3
3
3
3
3
3
3
3
3
3
3
3
3
3
3
3
3
3
3
3
3
3
3
3
3
3
3
3
3
3
3
3
2
2
3
3
3
3
3
3
3
3
3
3
3
3
3
3
3
3
2
2
3
3
3
3
3
3
3
3
3
3
3
3
3
3
3
3
3
3
3
3
3
3
3
3
3
3
3
3
3
3
3
3
3
3
3
3
3
3
3
3
3
3
3
3
3
3
3
3
3
3
3
3
3
3
3
3
3
3
3
3
3
3
3
3
3
3
3
3
3
3
3
3
3
3
3
3
3
3
3
3
3
3
3
3
3
3
3
3
3
3
3
3
3
3
3
3
3
3
3
3
3
2
2
3
3
3
3
3
3
3
3
3
3
3
3
3
3
2
2
3
3
3
3
3
3
3
3
3
3
3
3
3
3
3
3
3
3
3
3
3
3
3
3
3
3
3
3
3
3
3
3
3
3
3
3
3
3
3
3
3
3
3
3
3
3
3
3
3
3
3
3
3
3
SCALARS CharacterAngle float 1
LOOKUP_TABLE default
0.0
76.736079
76.786858
84.497943
87.608487
88.641618
89.948417
88.300557
84.701657
76.615815
76.566821
84.628011
87.868757
88.978449
89.980858
88.501108
85.008780
71.456616
71.440461
76.646841
80.405281
81.990700
82.950607
83.858014
84.867210
85.892919
86.926911
88.042095
89.262279
89.243906
88.209989
87.518715
86.665342
85.866400
85.111388
84.342985
83.614357
82.987561
82.269473
80.948060
77.443826
71.966999
72.010500
77.915146
81.357857
82.833617
83.702770
84.376504
85.069461
85.797847
86.598209
87.518904
88.594751
89.735938
89.223529
88.191621
87.136288
86.200975
85.376213
84.612128
83.882666
83.174566
82.269663
80.731679
77.253074
72.251238
72.288627
78.310800
81.787520
83.247095
84.296213
84.964007
85.571502
86.176982
86.738867
87.378312
88.052165
88.423007
89.098457
89.753689
88.783103
87.978675
87.250448
86.491951
85.727096
84.855400
83.638670
82.050287
78.470938
72.378176
72.357986
78.505185
81.863084
83.295517
84.322168
84.971239
85.516301
86.106119
86.655385
87.258774
87.958122
88.296066
89.002490
89.774543
88.807468
87.957346
87.215886
86.464811
85.674848
84.812713
83.604151
82.013136
78.374679
76.740093
76.781515
83.889118
87.044846
88.002789
88.532343
88.653395
88.671687
89.083983
89.847415
89.555806
88.727747
87.453819
83.712861
76.346005
76.270861
83.553472
87.080765
88.216765
88.850520
89.023041
89.023604
89.291418
89.852617
89.689854
88.887583
87.641843
84.142131
75.650574
75.696678
82.943682
86.465568
87.588880
88.261936
88.571324
88.812174
88.981858
89.584749
89.688926
89.211033
88.729686
87.981077
86.794135
83.157381
75.749636
75.700198
82.876561
86.281923
87.444826
88.163174
88.529892
88.788054
88.916696
89.471987
89.759030
89.203268
88.635149
87.814735
86.540256
82.956991
73.311773
73.457453
79.858037
83.529414
84.858753
85.527518
85.939015
86.503434
87.140747
87.810831
88.312816
89.292546
89.453445
88.499912
87.660392
86.854687
86.092100
85.092672
83.371460
79.307422
72.788338
72.838278
79.589891
83.050338
84.451992
85.247501
85.886288
86.588610
87.338668
88.168619
89.040731
89.866702
88.826110
87.970818
87.224230
86.543300
85.946595
85.178027
83.802130
80.361988
77.484315
77.380179
85.659904
89.000698
89.992666
89.523133
88.798369
88.453083
88.557061
88.553679
87.928496
85.009338
77.217770
77.330427
85.368333
88.764969
89.856930
89.457019
88.606380
88.268905
88.397376
88.409002
87.782284
84.971785
77.025005
77.038213
84.700100
87.467639
88.627864
89.287402
89.465707
89.591448
89.695765
89.779473
89.771921
89.951745
89.934114
89.834726
89.684816
89.537581
89.340939
88.658427
87.515541
84.803447
77.191947
77.229666
84.917478
87.647544
88.689132
89.218609
89.344594
89.481506
89.649352
89.807143
89.787517
89.824850
89.894824
89.909449
89.685877
89.485404
89.293610
88.714105
87.602781
84.782639
73.370739
73.317842
81.807651
86.582408
88.307070
89.765051
88.997021
87.833229
86.266343
81.632503
73.310380
73.346141
81.833899
86.487364
88.189802
89.731541
88.896202
87.703677
86.186136
81.689035
76.847244
76.795164
84.507604
87.801627
88.910892
89.613158
89.877818
89.472624
89.300276
88.662466
87.602043
84.363219
76.748354
76.752019
84.520875
87.978449
89.039916
89.711392
89.828607
89.449869
89.335783
88.772994
87.788545
84.449554
73.654213
73.947345
82.612552
87.162311
88.763289
89.801729
88.749494
87.913953
86.647937
82.426634
73.740365
74.190904
82.401088
86.966326
88.517226
89.983599
88.802236
87.790106
86.444595
82.059171
78.481514
78.468599
86.186518
88.963064
89.566574
89.811684
89.917180
89.773457
89.666314
89.446510
88.796007
85.869334
78.102449
78.132621
85.704525
88.902779
89.726874
89.908463
89.757462
89.634989
89.618465
89.402830
88.781703
85.875931
78.834864
78.909146
86.568909
89.026349
89.478407
89.503848
89.536887
89.829215
89.979650
89.839899
89.222882
86.538596
78.582754
78.609139
86.453339
88.957587
89.566192
89.659767
89.708341
89.962340
89.958498
89.820538
89.168853
86.699046
78.076988
78.092641
85.955533
88.711759
89.471801
89.705230
89.814087
89.863950
89.744741
89.500237
88.759981
86.043035
78.186405
78.200645
86.107690
88.779300
89.377355
89.519613
89.645971
89.919258
89.647957
89.442473
88.787411
86.044456
76.850541
76.827192
84.631111
87.775085
88.811347
89.473958
89.767300
89.895031
89.565329
88.916216
87.907157
84.800370
77.015731
76.960763
84.652288
87.957613
88.959488
89.517204
89.627786
89.919351
89.746994
89.107688
88.028282
84.596763
74.660962
74.653630
82.149287
86.448112
88.310955
89.639272
87.111551
82.379959
74.649373
74.553205
82.381536
86.689381
88.548441
89.678847
87.342643
82.700023
76.921507
76.817268
84.494735
87.715241
88.835935
89.574685
89.944370
89.362077
89.044375
88.988914
88.811192
88.248430
87.251354
84.241711
76.822905
76.819813
84.432095
87.809595
88.919140
89.614512
89.971170
89.326148
88.890616
88.921172
88.829911
88.362351
87.417328
84.268653
76.512334
76.430387
81.622513
86.592345
87.788775
88.378624
88.680782
89.013407
89.434367
89.976550
89.402214
89.031051
88.719676
88.134577
86.937928
81.759809
77.471392
76.767887
83.553698
86.905123
87.968649
88.647015
88.940120
89.151545
89.379782
89.910980
89.530771
89.259408
88.930052
88.254928
87.322581
84.380558
76.612448
76.595955
84.607070
88.012652
89.184242
89.981035
89.448846
88.895721
87.842983
84.605089
76.732307
76.743230
84.680786
88.093393
89.231117
89.891965
89.621000
89.024786
87.929516
84.531398
79.180502
79.916422
83.101048
87.460993
88.751349
89.395436
89.515294
89.543927
89.985594
89.705273
89.456760
88.723234
87.354845
82.931433
79.001606
79.721446
82.930620
87.486224
88.790365
89.446069
89.654109
89.897471
89.676898
89.564444
89.431265
88.823321
87.583989
83.069579
75.064801
75.198970
82.844811
86.585509
87.947086
88.757345
89.403432
89.828298
89.200638
88.528351
87.284981
83.588757
75.718194
75.694689
83.370521
86.823009
87.995776
88.580181
88.675805
89.329562
89.730530
88.778183
87.234397
83.267698
76.888487
76.877397
84.719935
88.057655
89.214605
89.970975
89.121848
88.582221
88.503546
88.169335
87.248626
84.158300
76.538735
76.695789
85.026758
88.569634
89.772371
89.588808
88.866238
88.523809
88.623157
88.606813
87.790181
84.775763
78.131367
78.161657
85.656763
88.656816
89.466291
89.840579
89.907334
89.905060
89.827323
89.476799
88.662285
85.639968
78.131822
78.159602
85.650064
88.484549
89.262939
89.716540
89.882888
89.859599
89.732266
89.258825
88.480872
85.659055
73.336198
73.276268
79.858361
83.815150
85.550717
86.575401
87.270400
87.941665
88.719765
89.659441
88.983465
87.978186
87.610188
87.022984
86.577751
86.259956
85.917464
85.182340
83.802736
80.294428
73.745068
73.782006
80.616103
84.336767
85.683226
86.379612
86.974047
87.682270
88.511544
89.418858
89.581844
88.778219
88.217383
87.449799
86.706790
86.064836
85.548124
84.878774
83.530265
79.856923
76.071440
76.043647
83.743067
87.617735
89.028238
89.817929
89.633106
88.875765
88.479551
88.643328
88.591334
88.194089
87.101395
83.692100
76.280634
76.388556
83.784835
87.337364
88.574590
89.385808
89.967229
89.155919
88.700069
88.607669
88.369969
87.743937
86.669440
83.278751
77.305219
77.198898
85.044413
88.231615
89.360822
89.996350
89.754831
89.289760
89.003318
89.121953
89.050677
88.688995
87.723280
84.755829
77.198519
77.197723
84.697677
87.908193
89.005889
89.737509
89.845449
89.257059
88.901357
88.938715
88.858616
88.334735
87.421559
84.474525
79.651973
79.722507
82.681963
87.432318
88.609230
89.161101
89.286869
89.596069
89.839228
89.062496
87.717104
82.737489
79.633359
79.404428
82.612847
87.261860
88.434618
89.126506
89.364799
89.816895
89.568851
88.827477
87.632130
82.915000
76.311566
76.334003
83.849918
86.822183
87.848073
88.465486
88.749642
88.780257
89.278486
89.942943
89.316220
88.548742
87.409149
84.290619
76.593956
76.509642
84.133207
87.180206
88.192256
88.555946
88.583782
88.644987
89.156508
89.943155
89.539646
88.878244
87.653964
84.235746
77.551238
77.518516
85.550647
88.615706
89.515276
89.976711
89.651266
89.367268
89.303618
88.979767
88.217065
85.279367
77.371187
77.420664
85.056169
88.423336
89.474257
89.879602
89.420504
89.243820
89.280017
88.933918
88.098625
84.989806
78.234408
78.213844
86.424990
89.086533
89.529471
89.560107
89.731780
89.988867
89.337925
86.460015
78.051858
77.960825
85.970186
88.754641
89.427476
89.601362
89.972323
89.691862
89.023096
86.274100
77.167710
77.143420
85.350544
88.480834
89.415049
89.740805
89.851831
89.469850
88.538944
85.385024
77.192447
77.161091
85.144591
88.295185
89.236530
89.662595
89.901036
89.355548
88.354622
85.165824
73.665278
73.863236
82.034858
86.276733
87.696942
88.799815
89.966934
88.402902
86.743879
82.262301
73.721178
73.744475
81.949679
86.364932
87.800307
88.832403
89.987409
88.501247
86.810621
82.169774
77.290214
77.292090
85.098657
88.385968
89.411653
89.917929
89.774375
89.327437
88.287905
84.985461
77.181229
77.207249
85.052021
88.191743
89.199361
89.901570
89.575799
89.004337
88.102527
85.085321
75.493724
75.505071
82.607127
86.317038
87.597399
88.404326
88.873394
89.340560
89.976200
89.317410
88.920085
88.576854
88.216943
87.469805
86.216095
82.567739
75.497283
75.540336
82.593283
86.177964
87.446890
88.289991
88.851862
89.394951
89.952811
89.407429
89.008735
88.586138
88.084596
87.269157
86.057104
82.535069
77.911873
77.851617
85.810047
88.756798
89.651434
89.581871
89.131531
88.970902
88.268482
85.558790
77.854035
77.895411
85.970311
89.019981
89.909248
89.489045
89.213500
89.208527
88.558454
85.758744
76.534390
76.423139
84.768721
88.262241
89.392365
89.932312
89.561976
89.208502
89.143476
88.836964
87.810639
84.431785
76.278522
76.253920
83.872774
87.565574
88.839376
89.651154
89.479390
88.833965
88.688015
88.171287
87.160653
83.810580
73.997572
73.964901
81.007446
84.652897
86.494910
87.889722
88.820023
89.578407
89.585528
88.823278
87.866932
86.472737
84.626137
80.958082
73.956417
73.926374
80.829474
84.519433
86.520972
88.005561
88.984824
89.694648
89.584844
88.918244
87.985366
86.512458
84.529736
80.873571
77.975207
77.969661
85.924612
88.752637
89.553255
89.915331
89.793014
89.470487
89.395736
89.281517
88.564987
85.853918
78.031843
78.071705
85.951433
88.626043
89.346734
89.680165
89.868154
89.410960
89.310661
89.077899
88.431546
85.810117
75.028640
75.056637
82.003787
85.754957
87.298480
88.285805
88.806170
89.076550
89.340838
89.892056
89.523669
89.100250
88.505803
87.470846
85.856845
82.147529
75.098899
75.094642
82.050274
85.563229
86.954970
87.942528
88.630432
89.087650
89.430496
89.973194
89.418583
88.894443
88.166461
87.149364
85.725826
82.019520
78.472286
78.488076
86.285786
88.790154
89.284013
89.349063
89.261059
89.557887
89.808425
89.965006
89.286807
86.567624
78.558973
78.468832
86.028677
88.625214
89.181581
89.324434
89.274307
89.444517
89.741368
89.864342
89.092777
86.236864
78.861724
77.409950
82.341688
87.974850
89.300528
89.983396
89.539660
89.337653
89.272422
88.706542
87.553552
82.162405
78.695673
77.487868
84.730513
87.984540
89.034903
89.815674
89.566923
89.231863
89.115369
88.514791
87.576535
84.443478
76.687732
76.692984
84.164244
87.557028
88.680400
89.422385
89.693822
89.989091
89.534686
88.726193
87.525073
84.023534
76.486806
76.493484
84.351491
87.734413
88.977191
89.702738
89.983111
89.759506
89.624590
88.964182
87.790282
84.498973
77.659200
77.710385
84.945672
88.196988
89.094858
89.530864
89.581014
89.677257
89.928532
89.937248
89.808144
89.286693
88.315448
84.996928
77.702276
77.702640
85.052645
88.300823
89.188222
89.541960
89.533634
89.673732
89.974005
89.890338
89.793081
89.372429
88.463557
85.120080
81.167241
81.727282
84.294644
88.341265
89.236266
89.796502
89.944484
89.647348
89.566871
89.173239
88.259436
84.271300
80.846989
81.289692
84.756273
88.795671
89.752080
89.946730
89.830722
89.795252
89.857783
89.568346
88.702928
84.303464
75.869557