# vtk DataFile Version 3.0
Example dislocation config
ASCII
DATASET UNSTRUCTURED_GRID
POINTS 20 FLOAT
0.000000 0.000000 0.000000
10.000000 0.000000 0.000000
0.000000 10.000000 0.000000
0.000000 0.000000 10.000000
10.000000 10.000000 0.000000
10.000000 0.000000 10.000000
0.000000 10.000000 10.000000
10.000000 10.000000 10.000000
2.000000 2.000000 2.000000
6.000000 2.000000 2.000000
2.000000 4.000000 2.000000
6.000000 4.000000 2.000000
2.000000 6.000000 2.000000
6.000000 6.000000 2.000000
2.000000 2.000000 6.000000
6.000000 2.000000 6.000000
2.000000 4.000000 6.000000
6.000000 4.000000 6.000000
2.000000 6.000000 6.000000
6.000000 6.000000 6.000000
CELLS 7 27
8 0 1 4 2 3 5 7 6
2 8 9
2 10 11
2 12 13
2 14 15
2 16 17
2 18 19
CELL_TYPES 7
12
4
4
4
4
4
4
CELL_DATA 7
VECTORS Burgers FLOAT
0.000000 0.000000 0.000000
1.000000 1.000000 1.000000
-1.000000 1.000000 1.000000
1.000000 -1.000000 1.000000
1.000000 1.000000 -1.000000
0.000000 1.000000 1.000000
1.000000 0.000000 1.000000
VECTORS Planes FLOAT
0.000000 0.000000 0.000000
0.000000 -1.000000 1.000000
0.000000 1.000000 1.000000
1.000000 0.000000 1.000000
1.000000 1.000000 0.000000
1.000000 1.000000 2.000000
2.000000 1.000000 1.000000
SCALARS SlipSystem FLOAT 1
LOOKUP_TABLE default
1.000000
12.000000
13.000000
24.000000
25.000000
5.000000
SCALARS CharType FLOAT 1
LOOKUP_TABLE default
1.000000
2.000000
3.000000
1.000000
2.000000
3.000000
SCALARS CharAngle FLOAT 1
LOOKUP_TABLE default
5.000000
45.000000
85.000000
2.000000
60.000000
88.000000
