# vtk DataFile Version 3.0
Configuration exported from OpenDiS
ASCII
DATASET UNSTRUCTURED_GRID
POINTS 33610 FLOAT
-29412.000000 -29412.000000 -29412.000000
29412.000000 -29412.000000 -29412.000000
-29412.000000 29412.000000 -29412.000000
-29412.000000 -29412.000000 29412.000000
29412.000000 29412.000000 -29412.000000
29412.000000 -29412.000000 29412.000000
-29412.000000 29412.000000 29412.000000
29412.000000 29412.000000 29412.000000
-14316.668551 7879.866851 3758.389279
-15231.495810 7685.003220 2648.698389
-14316.668551 7879.866851 3758.389279
-13462.966272 8032.676737 4764.901444
21886.523373 -23801.441571 6311.311233
21309.007936 -23289.292702 7400.975540
21886.523373 -23801.441571 6311.311233
22404.927805 -24133.318446 5461.029926
14698.140686 -22081.006415 -28146.653832
14370.575116 -20938.160715 -27331.373703
14698.140686 -22081.006415 -28146.653832
14457.883977 -22990.735700 -29296.639825
-25703.371922 18687.311058 -15059.030848
-25703.371922 19482.149178 -15853.868968
-25703.371922 18687.311058 -15059.030848
-25703.371922 17924.405823 -14296.125614
158.044898 -20768.017146 -9605.676756
592.254561 -20730.175711 -9209.308529
158.044898 -20768.017146 -9605.676756
-365.806715 -20829.490522 -10068.054995
20059.409591 -25049.086938 -9121.739154
20293.657719 -25300.974607 -9607.779107
20059.409591 -25049.086938 -9121.739154
19672.016912 -24473.813471 -8159.073008
-12261.920882 -21913.844076 -3903.979769
-11460.599437 -22293.063418 -2723.438981
-12261.920882 -21913.844076 -3903.979769
-12889.394821 -21464.538542 -4980.759242
-257.078986 27559.479767 15169.641687
230.321140 26132.491520 16109.229796
-257.078986 27559.479767 15169.641687
-399.805701 28064.900831 14806.947375
-2580.567222 -12646.285404 8660.961814
-1686.620135 -12646.285404 7767.014727
-2580.567222 -12646.285404 8660.961814
-3346.261287 -12646.285404 9425.845273
-18009.749373 -10070.980540 -14898.473795
-18344.398564 -10129.681442 -14622.525506
-18009.749373 -10070.980540 -14898.473795
-17456.958082 -10071.735671 -15452.020219
-25740.626968 20206.768974 -27513.636772
-26723.354621 19605.348587 -27894.944037
-25740.626968 20206.768974 -27513.636772
-24728.979736 20879.179134 -27174.399700
-24554.709987 -14313.755220 22516.507712
-23884.360256 -14133.642453 21666.045214
-24554.709987 -14313.755220 22516.507712
-25550.210832 -14804.663304 24002.916642
-20895.784106 1057.261731 6339.215362
-20514.968393 1874.471586 5902.821220
-20895.784106 1057.261731 6339.215362
-21453.582754 -253.804582 7092.483027
25621.823404 -29074.430194 23428.754436
26183.341464 -28493.802261 22286.608443
25621.823404 -29074.430194 23428.754436
25578.044289 -29412.000002 23810.103360
25578.044289 29411.999986 23810.103360
25512.988839 28910.373695 24376.785112
5006.541636 26327.435468 3218.257747
5593.419838 25631.521736 4501.049681
5006.541636 26327.435468 3218.257747
4672.150910 27266.419234 1944.883255
20819.650666 -26707.028956 -11877.089319
20419.702143 -26412.082369 -11982.091255
20819.650666 -26707.028956 -11877.089319
21424.067805 -27268.455745 -11834.098970
-15075.949845 -24822.076698 12936.262428
-14355.294952 -24879.279257 13599.714761
-15075.949845 -24822.076698 12936.262428
-16002.063434 -24736.056235 12096.169302
-22029.475817 -1169.333904 8583.905412
-21779.265771 -875.753112 8040.114573
-22029.475817 -1169.333904 8583.905412
-22356.452005 -1545.811918 9287.359614
23964.806486 12328.640571 12204.332732
24656.599343 12020.571174 11820.609272
23964.806486 12328.640571 12204.332732
23165.945733 12652.368193 12679.465863
-11842.486167 3546.827189 -16633.796799
-12630.796670 3614.904955 -15913.564062
-11842.486167 3546.827189 -16633.796799
-11046.667962 3415.977892 -17298.765707
-5554.851283 28859.737380 22908.624210
-6107.114020 29411.999996 22908.624210
-6107.114020 -29411.999992 22908.624210
-6352.857831 -29166.256246 22908.624210
-5554.851283 28859.737380 22908.624210
-4846.196078 28151.082175 22908.624210
-6176.015147 28659.419425 4282.189576
-5751.099808 29411.999997 3954.524344
-5751.099808 -29411.999992 3954.524344
-5415.942810 -28818.393178 3696.074517
-6176.015147 28659.419425 4282.189576
-6628.688076 28007.017483 4481.918589
16109.487366 27782.110176 -20776.946883
16168.918433 27787.624703 -20830.863423
16109.487366 27782.110176 -20776.946883
15714.309404 27800.776938 -21153.458085
16109.487366 27782.110176 -20776.946883
15215.799432 26993.978324 -20671.390801
25730.500962 -13132.413629 27760.239716
25116.809599 -14504.622075 28518.756800
25730.500962 -13132.413629 27760.239716
26076.681803 -12191.709201 27165.716130
-23423.139839 20455.860895 -4748.879477
-23039.580464 20429.590679 -5106.168635
-23423.139839 20455.860895 -4748.879477
-23876.112786 20363.966635 -4204.012269
-27530.020550 11075.348365 6129.899600
-26715.534330 10335.771756 6054.989989
-27530.020550 11075.348365 6129.899600
-27797.158624 11366.828494 6105.557544
28913.844188 9516.622777 10067.312824
28606.522525 9719.601151 10171.656114
28913.844188 9516.622777 10067.312824
29411.999997 9182.803654 9902.976139
-29411.999991 9182.803654 9902.976139
-29011.100499 8914.156940 9770.723349
12098.237379 -5705.871089 16300.629126
11663.451658 -6542.718732 16702.691049
12098.237379 -5705.871089 16300.629126
12793.289063 -4713.269536 16003.079258
-9700.685674 27165.834198 -27243.146549
-10047.135870 27644.361580 -27375.219789
-9700.685674 27165.834198 -27243.146549
-9174.167818 26391.574790 -26995.404431
-23039.040795 17806.548500 4962.698684
-22256.614584 17646.018683 5584.595078
-23039.040795 17806.548500 4962.698684
-23938.625514 18048.598988 4305.164453
-20200.024396 -22447.737710 1225.304097
-20738.439314 -21432.161326 1702.465562
-20200.024396 -22447.737710 1225.304097
-19811.094915 -22912.030061 1149.941226
-21476.498954 -8436.391021 27380.056885
-22193.375766 -9153.267834 27380.056885
-21476.498954 -8436.391021 27380.056885
-20760.607250 -7720.499318 27380.056885
-16860.125223 24262.056682 -15969.371965
-17432.981641 24262.056682 -16540.587569
-16860.125223 24262.056682 -15969.371965
-15900.691482 24262.056682 -15010.579330
3966.221361 18419.787172 26659.997356
3966.221361 19145.889725 25933.894585
3966.221361 18419.787172 26659.997356
3966.221361 17686.139875 27393.644668
-15661.849365 -16553.746646 9449.898899
-16291.848048 -17393.573639 10919.724574
-15661.849365 -16553.746646 9449.898899
-15196.815692 -15646.284839 8077.403419
6119.420285 11062.754817 -21074.321185
5135.228303 10430.895775 -20721.988245
6119.420285 11062.754817 -21074.321185
7341.787413 12393.046873 -20966.396257
19104.729162 -16097.058371 16797.715357
18409.310749 -16851.125073 16739.067069
19104.729162 -16097.058371 16797.715357
19725.800380 -15271.992131 17001.710379
-27712.403009 25627.187601 -22846.621940
-29017.036423 26905.492114 -22846.621940
-27712.403009 25627.187601 -22846.621940
-27131.112410 25047.157934 -22846.621940
10783.323709 26777.708392 19478.683975
11519.289995 27406.938140 19585.419385
10783.323709 26777.708392 19478.683975
10115.896734 26208.108510 19380.856882
-14014.631857 -17634.253275 -16173.077372
-12723.593421 -17962.674641 -15210.460302
-14014.631857 -17634.253275 -16173.077372
-13975.336762 -18770.075391 -17269.604392
-14014.631857 -17634.253275 -16173.077372
-14606.706299 -17383.509902 -16514.408441
859.502163 416.266201 -15763.553628
546.712607 -437.081789 -16304.112061
859.502163 416.266201 -15763.553628
1113.447024 1338.589352 -15095.175337
-29030.967922 -12853.790293 -29014.483376
-28800.293146 -13207.595271 -28891.353173
-29030.967922 -12853.790293 -29014.483376
-29412.000004 -12280.073045 -29207.168541
29411.999984 -12280.073045 -29207.168541
29271.657398 -12068.760212 -29278.138776
28713.055145 -20173.321280 6888.459409
27925.368131 -20173.795240 6101.246354
28713.055145 -20173.321280 6888.459409
29411.999996 -20216.230710 7630.313689
-29411.999992 -20216.230710 7630.313689
-29131.240435 -20233.467024 7928.309572
-19598.114410 -10557.444090 12258.972764
-19886.087249 -10869.653279 12859.154792
-19598.114410 -10557.444090 12258.972764
-19109.944790 -10028.841311 11242.200365
-4802.491925 25793.568742 -23981.368673
-5612.744048 26603.820872 -23981.368673
-4802.491925 25793.568742 -23981.368673
-3967.276271 24958.353082 -23981.368673
13458.724398 13833.239955 -20065.201944
13128.580628 13534.838818 -20065.201944
13458.724398 13833.239955 -20065.201944
14252.437887 14611.329332 -20065.201944
-23195.628156 -16874.280095 22173.322515
-22678.082887 -16396.780744 22213.368434
-23195.628156 -16874.280095 22173.322515
-22725.657125 -17333.827951 22162.899340
-19702.381720 27715.935340 5677.564875
-19702.381720 28269.726686 5123.773530
-19702.381720 27715.935340 5677.564875
-20229.171434 27994.028269 5926.261661
-19702.381720 27715.935340 5677.564875
-19215.902388 27389.392670 6490.586877
-6519.688831 -12562.908541 -23449.128158
-6519.688831 -11932.660001 -24079.376698
-6519.688831 -12562.908541 -23449.128158
-6519.688831 -13309.321276 -22690.785155
-18648.752663 6209.843202 -10412.006001
-17978.302941 6300.637897 -10991.661028
-18648.752663 6209.843202 -10412.006001
-19237.810632 6186.850857 -9845.940377
-5811.189743 18778.252502 3325.211711
-5999.993364 18685.773655 3606.494180
-5811.189743 18778.252502 3325.211711
-5243.017153 19089.400579 2445.891044
5147.102494 12981.998275 -7714.434077
5180.676410 13390.177618 -8089.039504
5147.102494 12981.998275 -7714.434077
5082.003728 12051.367500 -6848.902069
-1283.456487 6207.202095 5278.310365
-1487.655490 5328.743944 5952.569512
-1283.456487 6207.202095 5278.310365
-1012.645414 7293.455856 4462.867677
-1305.218990 -28305.105580 23223.964401
-1670.451327 -27447.886201 23715.951443
-1305.218990 -28305.105580 23223.964401
-937.963072 -29191.877094 22704.448806
8948.898684 4978.563117 22404.094740
9914.632340 4930.401834 21390.199802
8948.898684 4978.563117 22404.094740
8948.898684 3794.364333 23585.685713
8948.898684 4978.563117 22404.094740
8812.276615 4916.248206 22329.778066
2852.212121 18192.288955 25370.338245
[...]
CELL_DATA 16802
VECTORS Burgers FLOAT
0.000000 0.000000 0.000000
-0.707107 0.707107 0.000000
0.707107 -0.707107 -0.000000
-0.000000 0.707107 0.707107
0.000000 -0.707107 -0.707107
-0.707107 -0.000000 -0.707107
0.707107 0.000000 0.707107
0.000000 0.707107 0.707107
-0.000000 -0.707107 -0.707107
0.000000 -0.707107 0.707107
-0.000000 0.707107 -0.707107
-0.707107 0.000000 0.707107
0.707107 -0.000000 -0.707107
-0.707107 0.000000 -0.707107
0.707107 -0.000000 0.707107
-0.707107 -0.000000 0.707107
0.707107 0.000000 -0.707107
-0.707107 0.000000 -0.707107
0.707107 0.000000 0.707107
0.707107 0.707107 0.000000
-0.707107 -0.707107 -0.000000
0.707107 0.000000 0.707107
-0.707107 -0.000000 -0.707107
-0.707107 -0.000000 0.707107
0.707107 0.000000 -0.707107
0.000000 -0.707107 0.707107
-0.000000 0.707107 -0.707107
-0.707107 0.000000 0.707107
0.707107 -0.000000 -0.707107
0.707107 -0.000000 -0.707107
-0.707107 0.000000 -0.707107
0.707107 -0.000000 0.707107
-0.000000 0.707107 0.707107
0.000000 -0.707107 -0.707107
0.707107 -0.707107 -0.000000
-0.707107 0.707107 0.000000
-0.000000 -0.707107 0.707107
0.000000 0.707107 -0.707107
-0.707107 0.707107 -0.000000
0.707107 -0.707107 0.000000
0.707107 -0.707107 0.000000
-0.707107 0.707107 -0.000000
-0.707107 -0.707107 -0.000000
-0.707107 -0.707107 -0.000000
0.707107 0.707107 0.000000
-0.000000 0.707107 -0.707107
-0.000000 0.707107 -0.707107
0.000000 -0.707107 0.707107
-0.707107 0.000000 0.707107
0.000000 -0.707107 -0.707107
0.707107 0.707107 0.000000
-0.707107 -0.707107 -0.000000
0.707107 0.707107 0.000000
0.000000 -0.707107 0.707107
-0.000000 0.707107 -0.707107
-0.707107 0.707107 0.000000
0.707107 -0.707107 -0.000000
0.707107 -0.707107 0.000000
-0.707107 0.707107 -0.000000
-0.707107 0.707107 -0.000000
0.000000 0.707107 -0.707107
-0.000000 -0.707107 0.707107
0.707107 -0.707107 0.000000
-0.707107 0.707107 -0.000000
-0.707107 -0.000000 -0.707107
0.707107 0.000000 0.707107
0.707107 0.000000 0.707107
-0.707107 -0.000000 -0.707107
-0.707107 0.707107 0.000000
0.707107 -0.707107 -0.000000
0.707107 -0.000000 -0.707107
-0.707107 -0.000000 0.707107
0.000000 -0.707107 -0.707107
-0.000000 0.707107 0.707107
-0.707107 0.000000 0.707107
0.707107 -0.000000 -0.707107
-0.000000 0.707107 0.707107
0.000000 -0.707107 -0.707107
0.000000 0.707107 0.707107
-0.000000 -0.707107 -0.707107
-0.707107 -0.707107 -0.000000
0.707107 0.707107 0.000000
-0.707107 -0.707107 -0.000000
0.707107 0.707107 0.000000
0.707107 -0.707107 -0.000000
-0.000000 0.707107 0.707107
-0.707107 -0.000000 -0.707107
-0.000000 0.707107 0.707107
0.000000 -0.707107 -0.707107
-0.707107 0.000000 0.707107
0.707107 -0.000000 -0.707107
0.707107 -0.000000 -0.707107
-0.707107 -0.707107 0.000000
0.707107 0.707107 -0.000000
0.707107 0.707107 -0.000000
0.707107 -0.707107 0.000000
-0.707107 0.707107 -0.000000
-0.707107 -0.707107 0.000000
0.707107 0.707107 -0.000000
0.707107 -0.707107 0.000000
-0.707107 0.707107 -0.000000
0.000000 -0.707107 0.707107
-0.000000 0.707107 -0.707107
0.000000 0.707107 0.707107
0.707107 -0.707107 0.000000
-0.707107 0.000000 -0.707107
-0.000000 0.707107 0.707107
-0.000000 -0.707107 -0.707107
-0.707107 -0.707107 -0.000000
0.707107 0.707107 -0.000000
0.000000 -0.707107 0.707107
-0.000000 0.707107 -0.707107
-0.707107 -0.707107 -0.000000
0.707107 0.707107 0.000000
0.707107 0.707107 -0.000000
-0.707107 -0.707107 0.000000
0.707107 -0.707107 -0.000000
-0.707107 0.707107 0.000000
-0.707107 -0.000000 0.707107
-0.000000 -0.707107 -0.707107
0.707107 0.707107 0.000000
-0.707107 0.000000 -0.707107
0.707107 -0.000000 0.707107
0.707107 0.000000 -0.707107
-0.707107 -0.000000 0.707107
-0.707107 -0.000000 0.707107
0.707107 0.000000 -0.707107
0.000000 0.707107 -0.707107
-0.000000 -0.707107 0.707107
0.707107 0.707107 0.000000
-0.707107 -0.707107 -0.000000
0.707107 0.707107 0.000000
-0.707107 -0.707107 -0.000000
-0.707107 -0.707107 0.000000
0.707107 0.707107 -0.000000
-0.707107 0.000000 0.707107
0.707107 -0.000000 -0.707107
0.707107 0.707107 0.000000
-0.707107 -0.707107 -0.000000
-0.707107 0.000000 0.707107
0.707107 -0.000000 -0.707107
0.707107 -0.707107 0.000000
-0.707107 0.707107 0.000000
-0.000000 0.707107 0.707107
0.000000 -0.707107 -0.707107
-0.707107 0.000000 0.707107
0.707107 -0.000000 -0.707107
-0.707107 -0.707107 -0.000000
0.707107 0.707107 0.000000
0.000000 0.707107 0.707107
-0.000000 -0.707107 -0.707107
0.707107 0.000000 -0.707107
-0.707107 -0.000000 0.707107
-0.707107 0.707107 0.000000
0.707107 -0.707107 -0.000000
0.707107 -0.707107 0.000000
0.707107 -0.707107 0.000000
-0.707107 0.707107 -0.000000
-0.000000 -0.707107 0.707107
0.707107 0.707107 0.000000
-0.707107 0.000000 -0.707107
0.707107 0.000000 0.707107
-0.707107 -0.000000 -0.707107
0.707107 0.000000 0.707107
-0.707107 -0.000000 -0.707107
0.707107 -0.707107 0.000000
-0.707107 0.707107 -0.000000
-0.000000 0.707107 0.707107
0.000000 -0.707107 -0.707107
-0.707107 0.707107 -0.000000
0.707107 -0.707107 0.000000
-0.707107 -0.000000 -0.707107
0.707107 -0.000000 0.707107
-0.707107 0.000000 0.707107
0.707107 -0.000000 -0.707107
0.000000 0.707107 0.707107
-0.000000 -0.707107 -0.707107
0.707107 0.000000 0.707107
-0.707107 -0.000000 -0.707107
-0.707107 0.707107 -0.000000
0.707107 -0.707107 0.000000
0.707107 0.000000 -0.707107
0.000000 0.707107 0.707107
-0.707107 -0.707107 0.000000
-0.707107 -0.000000 0.707107
0.707107 0.000000 -0.707107
-0.707107 0.000000 0.707107
0.707107 -0.000000 -0.707107
0.707107 -0.000000 0.707107
-0.707107 0.000000 -0.707107
0.000000 -0.707107 0.707107
-0.000000 -0.000000 -1.414214
0.000000 0.707107 0.707107
-0.707107 -0.000000 0.707107
0.000000 -0.707107 -0.707107
0.707107 0.707107 0.000000
0.707107 -0.707107 0.000000
-0.000000 0.707107 -0.707107
-0.707107 0.000000 0.707107
0.000000 0.707107 0.707107
0.000000 -0.707107 -0.707107
-0.707107 -0.000000 0.707107
0.707107 0.000000 -0.707107
-0.000000 0.707107 -0.707107
0.000000 -0.707107 0.707107
-0.707107 -0.707107 0.000000
0.707107 0.707107 -0.000000
0.000000 -0.707107 0.707107
0.000000 -0.707107 0.707107
-0.000000 0.707107 -0.707107
0.000000 -0.707107 -0.707107
-0.000000 0.707107 0.707107
0.000000 -0.707107 -0.707107
-0.000000 0.707107 0.707107
0.000000 1.414214 -0.000000
-0.000000 -1.414214 0.000000
-0.707107 -0.000000 -0.707107
0.707107 0.000000 0.707107
-0.707107 0.000000 -0.707107
0.707107 -0.000000 0.707107
0.707107 -0.707107 0.000000
-0.707107 0.707107 -0.000000
0.000000 -0.707107 0.707107
-0.000000 0.707107 -0.707107
-0.000000 0.707107 -0.707107
0.707107 -0.000000 0.707107
-0.707107 -0.000000 -0.707107
0.707107 0.000000 0.707107
-0.707107 -0.000000 -0.707107
0.707107 0.000000 -0.707107
-0.707107 0.000000 0.707107
-0.707107 -0.707107 -0.000000
0.707107 0.707107 -0.000000
0.707107 -0.000000 0.707107
-0.707107 0.000000 -0.707107
-0.000000 -0.707107 0.707107
0.707107 0.707107 -0.000000
-0.707107 0.000000 -0.707107
0.707107 0.000000 -0.707107
-0.707107 -0.000000 0.707107
-0.707107 0.000000 0.707107
0.707107 -0.000000 -0.707107
-0.707107 -0.000000 0.707107
0.707107 0.000000 -0.707107
-0.707107 -0.000000 0.707107
0.707107 0.000000 -0.707107
-0.000000 -0.707107 0.707107
0.000000 0.707107 -0.707107
-0.707107 -0.000000 -0.707107
0.707107 0.000000 0.707107
0.707107 0.000000 0.707107
-0.707107 -0.000000 0.707107
0.707107 0.000000 -0.707107
0.000000 -0.707107 -0.707107
-0.000000 0.707107 0.707107
-0.707107 -0.707107 0.000000
0.707107 0.707107 -0.000000
0.707107 -0.707107 -0.000000
-0.707107 0.707107 0.000000
-0.707107 0.000000 -0.707107
0.707107 -0.000000 0.707107
0.707107 0.707107 0.000000
-0.707107 0.000000 -0.707107
0.000000 -0.707107 0.707107
0.707107 0.707107 -0.000000
-0.707107 -0.707107 0.000000
0.707107 0.707107 0.000000
-0.707107 -0.707107 0.000000
-0.000000 -0.707107 -0.707107
0.000000 0.707107 0.707107
0.707107 -0.000000 -0.707107
-0.707107 0.000000 0.707107
0.000000 0.707107 -0.707107
-0.000000 -0.707107 0.707107
-0.000000 0.707107 -0.707107
0.000000 -0.707107 0.707107
-0.000000 0.707107 -0.707107
0.000000 -0.707107 0.707107
-0.707107 -0.707107 0.000000
0.707107 0.707107 -0.000000
-0.000000 0.707107 0.707107
0.000000 -0.707107 -0.707107
0.000000 0.707107 0.707107
-0.707107 -0.707107 0.000000
0.707107 0.000000 -0.707107
-0.707107 0.000000 0.707107
0.707107 -0.000000 -0.707107
0.707107 -0.000000 0.707107
-0.707107 0.000000 -0.707107
-0.000000 -0.707107 -0.707107
-0.000000 0.707107 0.707107
-0.707107 -0.000000 -0.707107
0.707107 0.000000 0.707107
-0.000000 0.707107 0.707107
0.000000 -0.707107 -0.707107
-0.707107 -0.000000 -0.707107
0.000000 -0.707107 0.707107
0.707107 0.707107 0.000000
0.707107 -0.707107 0.000000
-0.707107 0.707107 -0.000000
0.707107 -0.707107 0.000000
-0.707107 0.707107 0.000000
0.707107 0.000000 -0.707107
-0.707107 0.000000 0.707107
0.707107 -0.000000 -0.707107
-0.707107 0.000000 0.707107
0.000000 -0.707107 -0.707107
-0.000000 0.707107 0.707107
-0.707107 -0.707107 -0.000000
0.707107 0.000000 0.707107
0.000000 0.707107 -0.707107
0.707107 0.707107 0.000000
-0.707107 -0.707107 -0.000000
-0.707107 0.707107 0.000000
0.707107 -0.707107 -0.000000
-0.707107 -0.000000 0.707107
0.707107 0.000000 -0.707107
-0.707107 0.000000 0.707107
0.707107 -0.000000 -0.707107
0.707107 0.707107 0.000000
-0.707107 -0.707107 0.000000
-0.707107 0.000000 -0.707107
0.000000 -0.707107 0.707107
0.707107 0.707107 -0.000000
-0.000000 -0.707107 -0.707107
0.000000 0.707107 0.707107
-0.000000 -0.707107 -0.707107
0.000000 0.707107 0.707107
0.707107 -0.000000 0.707107
-0.707107 0.000000 -0.707107
0.000000 0.707107 0.707107
0.000000 -0.707107 -0.707107
-0.707107 0.000000 -0.707107
0.707107 -0.000000 0.707107
0.707107 0.000000 0.707107
-0.707107 -0.000000 -0.707107
-0.000000 0.707107 0.707107
0.000000 -0.707107 -0.707107
0.707107 0.707107 -0.000000
-0.707107 -0.707107 0.000000
-0.707107 0.707107 0.000000
0.707107 -0.707107 -0.000000
-0.707107 -0.000000 0.707107
0.707107 0.000000 -0.707107
0.000000 -0.707107 0.707107
-0.707107 -0.707107 0.000000
0.707107 0.707107 -0.000000
-0.707107 0.000000 -0.707107
0.707107 -0.000000 0.707107
-0.707107 0.707107 -0.000000
0.707107 -0.707107 0.000000
0.000000 -0.707107 -0.707107
-0.000000 0.707107 0.707107
0.707107 0.000000 -0.707107
-0.707107 -0.000000 0.707107
0.000000 -0.707107 -0.707107
-0.000000 0.707107 0.707107
0.707107 -0.000000 0.707107
-0.707107 0.000000 -0.707107
-0.000000 0.707107 0.707107
0.000000 -0.707107 -0.707107
0.000000 0.707107 0.707107
0.000000 0.707107 -0.707107
-0.707107 -0.707107 1.414214
0.707107 -0.000000 -0.707107
-0.000000 -0.707107 0.707107
0.000000 0.707107 -0.707107
-0.000000 0.707107 -0.707107
-0.707107 -0.707107 -0.000000
0.707107 0.000000 0.707107
0.000000 -0.707107 -0.707107
-0.000000 0.707107 0.707107
-0.707107 0.000000 -0.707107
0.707107 0.000000 0.707107
-0.707107 0.000000 0.707107
0.707107 -0.000000 -0.707107
0.707107 -0.000000 -0.707107
-0.000000 -0.707107 0.707107
-0.707107 0.707107 0.000000
-0.707107 0.707107 -0.000000
0.707107 -0.707107 0.000000
-0.707107 0.000000 0.707107
0.707107 -0.000000 -0.707107
0.000000 -0.707107 0.707107
0.707107 0.707107 0.000000
-0.707107 0.000000 -0.707107
-0.707107 -0.000000 -0.707107
0.707107 -0.000000 0.707107
-0.707107 0.707107 0.000000
0.707107 -0.707107 -0.000000
0.707107 0.000000 -0.707107
-0.707107 -0.000000 0.707107
0.000000 -0.707107 -0.707107
-0.000000 0.707107 0.707107
0.000000 0.707107 0.707107
-0.000000 -0.707107 -0.707107
0.707107 0.707107 0.000000
-0.707107 -0.707107 -0.000000
-0.000000 -0.707107 -0.707107
-0.000000 0.707107 0.707107
0.000000 -0.707107 0.707107
-0.000000 0.707107 -0.707107
-0.707107 0.707107 0.000000
0.707107 -0.707107 -0.000000
0.000000 -0.707107 0.707107
-0.000000 0.707107 -0.707107
0.000000 0.707107 0.707107
-0.000000 -0.707107 -0.707107
0.000000 -0.707107 -0.707107
-0.707107 -0.000000 -0.707107
0.707107 0.000000 0.707107
-0.000000 0.707107 0.707107
0.000000 0.707107 0.707107
-0.000000 -0.707107 -0.707107
0.707107 0.000000 0.707107
-0.707107 -0.000000 -0.707107
-0.000000 -0.707107 -0.707107
-0.000000 0.707107 0.707107
0.707107 -0.707107 0.000000
-0.707107 0.707107 -0.000000
0.707107 -0.000000 0.707107
-0.707107 0.000000 -0.707107
0.707107 -0.000000 -0.707107
0.707107 -0.000000 0.707107
-0.707107 0.000000 -0.707107
-0.707107 0.707107 -0.000000
0.707107 -0.707107 0.000000
0.707107 -0.707107 0.000000
-0.707107 0.707107 -0.000000
-0.707107 0.707107 0.000000
0.707107 -0.707107 -0.000000
0.707107 0.000000 0.707107
-0.707107 -0.000000 -0.707107
0.000000 0.707107 0.707107
-0.000000 -0.707107 -0.707107
0.000000 0.707107 0.707107
-0.000000 -0.707107 -0.707107
0.707107 -0.707107 0.000000
-0.707107 0.707107 -0.000000
0.707107 0.707107 0.000000
-0.707107 -0.707107 -0.000000
0.707107 -0.000000 0.707107
-0.707107 0.000000 -0.707107
-0.707107 0.707107 -0.000000
0.707107 -0.707107 0.000000
-0.707107 -0.707107 0.000000
0.707107 0.707107 -0.000000
-0.707107 -0.000000 0.707107
0.707107 0.000000 -0.707107
0.707107 0.707107 0.000000
-0.707107 -0.707107 -0.000000
-0.707107 -0.707107 -0.000000
-0.000000 -0.707107 -0.707107
0.000000 0.707107 0.707107
0.000000 -0.707107 0.707107
-0.000000 0.707107 -0.707107
-0.000000 0.707107 -0.707107
0.000000 -0.707107 0.707107
0.707107 0.000000 0.707107
-0.707107 -0.000000 -0.707107
0.000000 0.707107 0.707107
-0.000000 -0.707107 -0.707107
-0.707107 -0.000000 0.707107
0.000000 0.707107 -0.707107
0.707107 -0.707107 0.000000
-0.707107 -0.000000 0.707107
0.707107 0.000000 -0.707107
-0.000000 0.707107 0.707107
-0.000000 -0.707107 -0.707107
-0.707107 -0.707107 0.000000
0.707107 0.707107 -0.000000
0.707107 0.707107 0.000000
-0.707107 -0.707107 -0.000000
-0.707107 0.000000 -0.707107
0.707107 -0.000000 0.707107
-0.707107 0.000000 -0.707107
0.707107 -0.707107 0.000000
-0.000000 0.707107 0.707107
-0.707107 0.707107 0.000000
0.707107 -0.707107 -0.000000
-0.000000 0.707107 0.707107
-0.000000 -0.707107 -0.707107
0.000000 0.707107 0.707107
-0.000000 -0.707107 -0.707107
-0.707107 0.000000 -0.707107
0.707107 -0.000000 0.707107
-0.000000 -0.707107 -0.707107
0.000000 0.707107 0.707107
0.000000 0.707107 0.707107
0.707107 0.707107 0.000000
-0.707107 -0.707107 -0.000000
0.707107 0.707107 0.000000
-0.707107 0.000000 0.707107
0.000000 -0.707107 -0.707107
-0.707107 -0.707107 0.000000
0.707107 0.707107 -0.000000
-0.000000 -0.707107 0.707107
0.000000 0.707107 -0.707107
0.707107 0.707107 -0.000000
-0.707107 -0.707107 -0.000000
0.000000 0.707107 0.707107
-0.000000 -0.707107 -0.707107
0.000000 -0.707107 0.707107
-0.000000 0.707107 -0.707107
0.707107 0.000000 0.707107
-0.707107 0.707107 0.000000
-0.000000 -0.707107 -0.707107
0.707107 -0.000000 -0.707107
-0.707107 -0.000000 0.707107
0.707107 -0.000000 -0.707107
-0.707107 0.000000 0.707107
-0.707107 -0.707107 0.000000
0.707107 0.707107 -0.000000
0.000000 -0.707107 -0.707107
0.707107 0.707107 -0.000000
-0.707107 0.000000 0.707107
0.000000 -0.707107 -0.707107
-0.000000 0.707107 0.707107
0.707107 0.707107 0.000000
-0.707107 -0.707107 -0.000000
0.000000 -0.707107 -0.707107
-0.000000 0.707107 0.707107
0.000000 0.707107 -0.707107
-0.000000 -0.707107 0.707107
0.707107 -0.000000 -0.707107
-0.707107 0.000000 0.707107
-0.707107 -0.000000 -0.707107
0.707107 0.000000 0.707107
-0.707107 -0.000000 -0.707107
-0.000000 -0.707107 -0.707107
0.000000 0.707107 0.707107
-0.707107 -0.707107 0.000000
0.707107 0.707107 -0.000000
-0.707107 -0.000000 -0.707107
0.707107 0.000000 0.707107
-0.707107 0.000000 0.707107
0.707107 -0.000000 -0.707107
0.707107 0.707107 0.000000
0.000000 -0.707107 -0.707107
-0.000000 0.707107 0.707107
-0.707107 0.000000 -0.707107
-0.707107 0.000000 -0.707107
0.707107 -0.000000 0.707107
0.707107 -0.000000 0.707107
0.707107 0.707107 -0.000000
-0.707107 -0.707107 0.000000
-0.707107 -0.000000 -0.707107
0.707107 0.000000 0.707107
0.707107 0.000000 0.707107
-0.707107 -0.000000 -0.707107
-0.707107 -0.707107 0.000000
0.707107 0.707107 -0.000000
-0.000000 0.707107 -0.707107
0.000000 -0.707107 0.707107
0.707107 -0.707107 0.000000
-0.000000 0.707107 0.707107
-0.000000 0.707107 0.707107
-0.707107 0.000000 -0.707107
-0.707107 0.000000 -0.707107
-0.707107 0.000000 -0.707107
0.707107 -0.000000 -0.707107
-0.707107 -0.000000 0.707107
-0.707107 0.000000 -0.707107
0.707107 -0.000000 0.707107
0.000000 0.707107 0.707107
-0.000000 -0.707107 -0.707107
-0.000000 0.707107 0.707107
0.000000 -0.707107 -0.707107
-0.707107 0.000000 -0.707107
0.707107 -0.000000 0.707107
0.000000 -0.707107 -0.707107
-0.000000 0.707107 0.707107
-0.000000 0.707107 0.707107
0.707107 -0.000000 0.707107
-0.707107 0.707107 -0.000000
0.000000 -0.707107 -0.707107
0.000000 0.707107 -0.707107
-0.000000 -0.707107 0.707107
0.707107 0.707107 0.000000
-0.707107 -0.707107 -0.000000
0.707107 -0.000000 -0.707107
-0.707107 0.707107 -0.000000
0.000000 -0.707107 0.707107
0.707107 0.000000 0.707107
-0.707107 -0.000000 0.707107
0.000000 0.000000 -1.414214
0.707107 -0.707107 -0.000000
0.000000 0.707107 -0.707107
-0.707107 -0.000000 0.707107
0.707107 0.000000 0.707107
-0.707107 -0.000000 -0.707107
0.707107 0.707107 -0.000000
-0.707107 0.000000 -0.707107
0.000000 -0.707107 0.707107
-0.707107 0.000000 -0.707107
0.707107 -0.000000 0.707107
0.707107 0.000000 0.707107
-0.707107 -0.000000 -0.707107
0.000000 -0.707107 -0.707107
-0.000000 0.707107 0.707107
-0.707107 0.707107 0.000000
0.707107 -0.707107 0.000000
0.707107 -0.707107 -0.000000
-0.707107 0.707107 0.000000
0.707107 0.707107 -0.000000
-0.707107 -0.707107 0.000000
0.707107 -0.707107 0.000000
-0.707107 0.707107 -0.000000
-0.707107 0.000000 0.707107
0.707107 -0.000000 -0.707107
-0.000000 -0.707107 0.707107
0.000000 0.707107 -0.707107
0.707107 0.000000 0.707107
-0.707107 -0.000000 -0.707107
0.707107 0.000000 0.707107
-0.707107 -0.000000 -0.707107
0.000000 -0.707107 -0.707107
-0.000000 0.707107 0.707107
0.707107 0.707107 0.000000
-0.000000 -0.707107 -0.707107
-0.707107 0.000000 0.707107
0.707107 0.000000 0.707107
-0.707107 0.000000 -0.707107
-0.707107 0.707107 0.000000
0.707107 -0.000000 0.707107
0.000000 -0.707107 -0.707107
-0.000000 -0.707107 0.707107
0.000000 0.707107 -0.707107
-0.707107 -0.000000 -0.707107
0.707107 0.000000 0.707107
0.707107 0.707107 0.000000
-0.707107 -0.707107 -0.000000
0.000000 0.707107 0.707107
-0.000000 -0.707107 -0.707107
-0.000000 -0.707107 0.707107
0.000000 0.707107 -0.707107
0.707107 -0.707107 0.000000
-0.707107 0.707107 -0.000000
0.707107 -0.707107 -0.000000
-0.000000 0.707107 0.707107
-0.707107 -0.000000 -0.707107
-0.707107 0.000000 0.707107
0.707107 -0.000000 -0.707107
0.707107 0.707107 0.000000
0.000000 -0.707107 0.707107
-0.707107 -0.000000 -0.707107
0.707107 0.707107 0.000000
-0.707107 -0.707107 -0.000000
-0.000000 0.000000 1.414214
0.000000 -0.000000 -1.414214
-0.707107 -0.000000 -0.707107
0.707107 -0.000000 0.707107
0.707107 0.707107 0.000000
0.707107 0.707107 0.000000
-0.707107 -0.707107 -0.000000
-0.707107 -0.707107 -0.000000
0.000000 -0.707107 0.707107
-0.000000 -0.707107 -0.707107
0.000000 0.707107 0.707107
0.707107 0.000000 0.707107
-0.707107 -0.000000 -0.707107
0.707107 -0.000000 -0.707107
-0.707107 0.000000 0.707107
0.707107 0.707107 -0.000000
-0.707107 -0.707107 0.000000
-0.000000 0.707107 -0.707107
0.000000 -0.707107 0.707107
0.707107 -0.000000 0.707107
0.000000 -0.707107 -0.707107
-0.707107 0.707107 -0.000000
-0.707107 0.000000 -0.707107
0.000000 0.707107 0.707107
0.707107 -0.707107 -0.000000
-0.707107 -0.000000 0.707107
0.707107 0.000000 -0.707107
-0.000000 -0.707107 0.707107
-0.000000 0.707107 -0.707107
0.000000 -0.707107 -0.707107
0.000000 0.707107 0.707107
0.000000 -0.707107 -0.707107
-0.000000 0.707107 0.707107
-0.707107 0.707107 -0.000000
0.000000 -0.707107 0.707107
0.707107 0.000000 -0.707107
-0.707107 -0.707107 0.000000
0.000000 0.707107 -0.707107
0.707107 -0.000000 0.707107
-0.000000 -0.707107 0.707107
0.000000 0.707107 -0.707107
0.000000 -0.707107 0.707107
-0.707107 0.000000 -0.707107
0.707107 0.707107 0.000000
0.000000 -0.707107 0.707107
-0.000000 0.707107 -0.707107
-0.707107 0.000000 -0.707107
-0.707107 0.000000 -0.707107
0.707107 -0.000000 0.707107
-0.707107 -0.707107 0.000000
0.707107 0.707107 -0.000000
0.000000 0.707107 -0.707107