# vtk DataFile Version 3.0
Configuration exported from OpenDiS
ASCII
DATASET UNSTRUCTURED_GRID
POINTS 53598 FLOAT
-29412.000000 -29412.000000 -29412.000000
29412.000000 -29412.000000 -29412.000000
-29412.000000 29412.000000 -29412.000000
-29412.000000 -29412.000000 29412.000000
29412.000000 29412.000000 -29412.000000
29412.000000 -29412.000000 29412.000000
-29412.000000 29412.000000 29412.000000
29412.000000 29412.000000 29412.000000
20994.318964 2832.607168 4605.808833
20996.610711 2851.252983 4589.454765
20994.318964 2832.607168 4605.808833
20360.585638 2889.330792 5296.265783
-9891.706914 -2370.281443 26248.105466
-10487.552911 -1774.435446 26248.105466
-9891.706914 -2370.281443 26248.105466
-10305.569668 -2660.270654 26371.979009
29246.011471 -5788.381264 -20919.138837
29411.999997 -5788.381264 -20753.150310
-29411.999991 -5788.381264 -20753.150310
-29192.450330 -5788.381264 -20533.600638
29246.011471 -5788.381264 -20919.138837
28614.764891 -5788.381264 -21550.385417
9601.198639 -25154.632711 28296.957805
9246.864220 -25154.632711 28673.372076
9601.198639 -25154.632711 28296.957805
9881.434626 -25154.632711 27998.637426
-21499.466153 -506.759383 9395.725284
-21482.207664 126.454197 8745.263774
-21499.466153 -506.759383 9395.725284
-21173.380498 -1110.377547 9671.741172
-15675.216907 -13300.491319 -20871.756197
-15171.780093 -12105.240142 -21563.570560
-15675.216907 -13300.491319 -20871.756197
-15918.094512 -14360.184880 -20054.940242
-15287.449716 -7350.352857 -28955.757196
-15650.835475 -7509.970957 -28751.989537
-15287.449716 -7350.352857 -28955.757196
-14829.189488 -7192.337052 -29256.001618
-24937.171099 22346.341625 -22338.595071
-23863.246007 21389.372716 -22455.562746
-24937.171099 22346.341625 -22338.595071
-25343.561318 22781.158102 -22367.052560
-6617.519129 -21937.209959 -21344.754297
-6021.660525 -21815.486361 -21818.889302
-6617.519129 -21937.209959 -21344.754297
-7108.876189 -22189.378004 -21105.565282
-24280.887646 -22367.627094 23844.406497
-24261.682081 -22766.608871 24262.593839
-24280.887646 -22367.627094 23844.406497
-24849.056932 -22935.796381 23844.406497
-24280.887646 -22367.627094 23844.406497
-23916.232987 -22002.972435 23844.406497
-23608.614637 782.419788 -17457.112090
-23608.615297 1396.585441 -18071.308736
-23608.614637 782.419788 -17457.112090
-23608.613834 51.338349 -16735.195471
-26503.569393 -3294.787204 -24712.260626
-27223.582386 -3577.185710 -25149.875113
-26503.569393 -3294.787204 -24712.260626
-25419.662092 -2947.414752 -23975.725777
6725.435262 19579.281775 -9983.377861
6725.435262 19254.057186 -10308.619846
6725.435262 19579.281775 -9983.377861
6428.457132 18548.693920 -9249.768136
28763.139191 10377.766329 5169.822211
29030.082057 10211.769866 5602.761539
28763.139191 10377.766329 5169.822211
28830.136302 10444.763440 5169.822211
28763.139191 10377.766329 5169.822211
28054.041239 9106.296224 4607.450058
-12418.466099 272.379692 20955.069862
-11804.868459 -970.109627 21583.961540
-12418.466099 272.379692 20955.069862
-12657.009374 775.423054 20690.569774
-18936.927878 23205.076623 -13784.166301
-18634.477326 23973.743979 -12713.048394
-18936.927878 23205.076623 -13784.166301
-20485.699646 22337.920570 -14465.782029
-9118.528409 -21774.360843 -25580.395712
-7781.513798 -20601.364378 -25744.413857
-9118.528409 -21774.360843 -25580.395712
-10398.645109 -22896.621362 -25422.539531
9254.891860 -22435.792388 1266.330428
9191.809331 -22966.886375 672.153912
9254.891860 -22435.792388 1266.330428
9266.398998 -22075.686945 1637.943009
-2803.220168 -1043.446109 -4242.928110
-1996.599012 -1040.752335 -3433.613180
-2803.220168 -1043.446109 -4242.928110
-2236.893121 -1105.008818 -4893.179164
-25524.735934 -17677.402296 28640.959178
-24900.314361 -17677.402296 27979.147189
-25524.735934 -17677.402296 28640.959178
-25967.827109 -17677.402296 29030.325096
-14960.412353 15789.703060 -22542.660975
-15376.154809 16531.072190 -22217.034301
-14960.412353 15789.703060 -22542.660975
-15670.296914 14552.668466 -23069.811008
25925.466387 7292.595280 4922.323965
24795.705087 6978.722724 5738.212709
25925.466387 7292.595280 4922.323965
26961.408262 7902.864698 4496.651508
-22232.772994 -1788.625244 -14826.454116
-21363.547578 -1788.625244 -15695.679532
-22232.772994 -1788.625244 -14826.454116
-22682.279506 -1839.242158 -14326.330690
-22232.772994 -1788.625244 -14826.454116
-23000.704016 -1445.387776 -15253.375440
3293.045391 4244.352585 22882.453139
3022.655404 4573.187415 23481.677956
3293.045391 4244.352585 22882.453139
3531.371636 3808.246480 22208.021002
-14764.504921 10161.669843 13411.818533
-14169.820259 9071.865639 13906.938075
-14764.504921 10161.669843 13411.818533
-15154.320347 10836.190771 13127.113031
-2149.909906 -20046.579546 28063.932345
-1260.434918 -20008.198225 27212.838677
-2149.909906 -20046.579546 28063.932345
-3504.843294 -20206.038795 29259.406485
9351.016816 19576.984793 -11677.183131
9998.983885 19451.167442 -12199.332847
9351.016816 19576.984793 -11677.183131
8363.549873 19812.743761 -10925.475156
5940.106557 18102.578808 5337.776069
6105.183959 17918.710464 4988.830322
5940.106557 18102.578808 5337.776069
4581.766628 18696.508696 6102.186109
8737.938079 -11855.176701 -26327.652138
8201.361259 -11309.062986 -26337.189034
8737.938079 -11855.176701 -26327.652138
9531.415793 -12255.595694 -26720.710860
23740.842953 8187.532358 15415.902228
24271.030105 8471.774553 15169.956618
23740.842953 8187.532358 15415.902228
22316.815228 7622.194115 16274.592851
-11827.330926 -5315.504282 -6391.364940
-12524.958740 -6033.028845 -6371.468191
-11827.330926 -5315.504282 -6391.364940
-11459.526098 -4865.349877 -6473.714516
16056.277903 -15374.715691 -18578.147820
16982.413780 -16305.661244 -18578.147820
16056.277903 -15374.715691 -18578.147820
15774.340825 -16414.483289 -19335.978341
10819.051413 807.258461 24431.883319
11041.442639 947.348060 24794.364145
10819.051413 807.258461 24431.883319
9916.736590 1709.573283 24431.883319
10819.051413 807.258461 24431.883319
11711.500181 140.356766 24206.336244
13175.551967 -6586.045434 -903.901330
14071.541173 -6773.347782 -1987.192955
13175.551967 -6586.045434 -903.901330
12423.703582 -6415.451910 18.540643
28082.829574 20566.868935 -25550.372501
27248.198049 20616.237063 -26434.372154
28082.829574 20566.868935 -25550.372501
28979.269507 20772.042856 -24859.106488
5621.777557 -9305.755269 -25760.571873
6220.638609 -10155.819122 -25509.539660
5621.777557 -9305.755269 -25760.571873
5349.388309 -8334.931341 -26458.665379
-17049.194001 -22111.358626 -11886.893118
-16670.172762 -22111.358626 -12266.072262
-17049.194001 -22111.358626 -11886.893118
-17764.095314 -22111.370194 -11167.263236
-27460.201242 24064.239069 -14124.064127
-28712.302900 24113.626562 -12822.567648
-27460.201242 24064.239069 -14124.064127
-26580.476417 23953.831670 -15114.200047
-25169.437635 5131.527476 9702.396703
-26059.965608 4736.976016 9206.420190
-25169.437635 5131.527476 9702.396703
-24418.880234 5609.512491 9974.969088
-6563.711233 -9361.597294 19526.746894
-6899.721197 -8509.148124 20043.186100
-6563.711233 -9361.597294 19526.746894
-6342.267058 -10199.523759 18910.264604
-29254.111203 -26843.364914 26652.585356
-28972.633552 -27428.076911 26957.172013
-29254.111203 -26843.364914 26652.585356
-29412.000001 -26763.330709 26730.439950
29411.999987 -26763.330709 26730.439950
28889.488291 -26498.468291 26988.089240
-29254.111203 -26843.364914 26652.585356
-28901.364480 -26499.137763 25955.611483
14306.125466 15555.464634 6780.543136
13655.455335 16185.119961 6780.543136
14306.125466 15555.464634 6780.543136
14863.096875 15016.481826 6780.543136
-28432.598954 22837.319627 -11439.984389
-28817.529440 23028.786662 -11633.580128
-28432.598954 22837.319627 -11439.984389
-27962.764430 23052.127854 -10755.253336
13240.598078 19988.927809 10979.348305
13691.395943 19397.106803 11120.371446
13240.598078 19988.927809 10979.348305
12831.688388 20623.321010 10753.864794
-25508.953807 12822.509629 7681.220912
-25599.875801 13295.529751 8063.319039
-25508.953807 12822.509629 7681.220912
-25402.249366 12102.076491 7067.492249
-55.061345 -20324.950631 18140.861945
-55.061376 -20855.826187 17600.989381
-55.061345 -20324.950631 18140.861945
-55.061343 -19941.875430 18525.142036
26439.843238 -5037.364795 -27226.330263
26439.843238 -5833.341750 -28022.307218
26439.843238 -5037.364795 -27226.330263
25463.824534 -5586.994545 -27652.719216
-370.662201 -7176.703251 24163.170637
-852.234889 -6371.364177 24486.937023
-370.662201 -7176.703251 24163.170637
394.637491 -7158.077354 23416.496841
152.945766 20885.294408 -7347.121679
157.419877 20101.857111 -6568.183443
152.945766 20885.294408 -7347.121679
249.704190 21607.568928 -8166.154623
-3966.576811 10235.357591 28804.668457
-3543.798816 9799.999476 28792.088336
-3966.576811 10235.357591 28804.668457
-4506.338611 10779.606155 28809.155221
-11327.777458 10396.567331 -12690.781618
-11824.234511 9518.424487 -12309.095827
-11327.777458 10396.567331 -12690.781618
-10805.479701 11224.139033 -12996.055564
-25530.026067 -12856.795666 -25413.033712
-25917.838970 -12856.795666 -25025.204276
-25530.026067 -12856.795666 -25413.033712
-25616.340342 -12225.699059 -25957.816045
-25530.026067 -12856.795666 -25413.033712
-24833.028920 -12569.668223 -25820.733320
-28060.151593 21048.338845 -23373.268720
-27818.838529 21048.338845 -23614.581837
-28060.151593 21048.338845 -23373.268720
-28781.177329 21048.338845 -22652.404792
-1543.761423 6687.710547 24236.512422
-2309.060153 7262.856839 24426.664863
-1543.761423 6687.710547 24236.512422
-1081.409528 6359.325128 24102.545947
24254.312854 20651.158309 -16466.552631
24883.399453 21048.338845 -17492.819766
24254.312854 20651.158309 -16466.552631
24506.843385 20977.177410 -16393.064062
24254.312854 20651.158309 -16466.552631
24821.743044 21677.425226 -16925.389794
14972.049754 -18323.847958 -10528.377082
15512.211882 -17543.205064 -10287.896316
14972.049754 -18323.847958 -10528.377082
[...]
CELL_DATA 26796
VECTORS Burgers FLOAT
0.000000 0.000000 0.000000
0.707107 0.707107 0.000000
-0.707107 -0.707107 0.000000
-0.707107 -0.707107 -0.000000
0.707107 0.707107 0.000000
-0.707107 -0.000000 0.707107
-0.707107 -0.000000 0.707107
0.707107 0.000000 -0.707107
0.707107 0.000000 0.707107
-0.707107 -0.000000 -0.707107
-0.707107 0.000000 0.707107
0.707107 0.000000 -0.707107
0.000000 -0.707107 0.707107
-0.000000 0.707107 -0.707107
0.707107 0.000000 -0.707107
-0.707107 -0.000000 0.707107
0.000000 0.707107 -0.707107
-0.000000 -0.707107 0.707107
0.000000 0.707107 0.707107
-0.000000 -0.707107 -0.707107
-0.000000 0.707107 -0.707107
-0.707107 -0.707107 0.000000
0.707107 0.000000 0.707107
-0.000000 0.707107 0.707107
0.000000 -0.707107 -0.707107
-0.707107 0.000000 -0.707107
0.707107 -0.000000 0.707107
-0.000000 -0.707107 0.707107
-0.000000 0.707107 -0.707107
-0.707107 0.000000 -0.707107
0.707107 -0.707107 0.000000
-0.000000 0.707107 0.707107
0.707107 -0.707107 0.000000
-0.707107 0.707107 -0.000000
0.707107 0.000000 0.707107
-0.707107 0.000000 -0.707107
0.707107 0.000000 -0.707107
-0.707107 -0.000000 0.707107
-0.707107 0.707107 0.000000
0.707107 -0.707107 -0.000000
-0.000000 0.707107 0.707107
0.000000 -0.707107 -0.707107
0.707107 0.000000 0.707107
-0.707107 -0.000000 -0.707107
-0.000000 -0.707107 -0.707107
0.000000 0.707107 0.707107
-0.000000 0.707107 0.707107
0.000000 -0.707107 -0.707107
-0.707107 -0.000000 -0.707107
0.707107 -0.707107 0.000000
-0.000000 0.707107 0.707107
0.707107 0.000000 -0.707107
-0.707107 -0.000000 0.707107
0.707107 -0.707107 0.000000
-0.707107 0.707107 -0.000000
-0.707107 0.000000 0.707107
0.707107 -0.000000 -0.707107
-0.707107 0.707107 -0.000000
0.707107 -0.707107 0.000000
-0.707107 0.000000 0.707107
0.707107 -0.000000 -0.707107
0.000000 -0.707107 0.707107
-0.000000 0.707107 -0.707107
0.707107 -0.000000 -0.707107
-0.707107 0.000000 0.707107
-0.707107 0.000000 -0.707107
0.707107 -0.000000 0.707107
0.707107 0.707107 0.000000
-0.707107 -0.707107 0.000000
0.707107 -0.707107 0.000000
0.000000 0.707107 -0.707107
-0.707107 -0.000000 0.707107
-0.707107 0.000000 0.707107
0.707107 -0.000000 -0.707107
0.000000 -0.707107 0.707107
-0.000000 0.707107 -0.707107
0.707107 0.000000 -0.707107
-0.707107 -0.000000 0.707107
-0.707107 0.000000 -0.707107
0.707107 -0.000000 0.707107
0.707107 0.707107 0.000000
-0.707107 -0.707107 -0.000000
0.707107 0.000000 0.707107
-0.707107 -0.000000 -0.707107
0.000000 -0.707107 -0.707107
-0.000000 0.707107 0.707107
0.000000 0.707107 -0.707107
0.707107 -0.707107 0.000000
0.707107 -0.707107 0.000000
-0.707107 -0.000000 0.707107
-0.707107 -0.707107 0.000000
0.707107 0.707107 -0.000000
-0.000000 -0.707107 -0.707107
0.000000 0.707107 0.707107
0.000000 0.707107 -0.707107
-0.000000 -0.707107 0.707107
-0.707107 -0.000000 -0.707107
0.707107 0.000000 0.707107
-0.000000 -0.707107 0.707107
0.000000 0.707107 -0.707107
-0.707107 -0.000000 -0.707107
0.707107 0.000000 0.707107
0.000000 0.707107 0.707107
-0.000000 -0.707107 -0.707107
0.000000 0.707107 -0.707107
-0.000000 -0.707107 0.707107
-0.707107 0.707107 -0.000000
0.707107 -0.707107 0.000000
0.707107 0.707107 0.000000
-0.707107 -0.707107 -0.000000
-0.000000 -0.707107 -0.707107
-0.707107 -0.000000 0.707107
0.707107 0.707107 0.000000
-0.707107 -0.000000 -0.707107
0.707107 0.000000 0.707107
0.707107 -0.707107 0.000000
-0.707107 0.707107 -0.000000
-0.707107 0.000000 0.707107
-0.000000 -0.707107 -0.707107
0.707107 0.707107 0.000000
0.000000 -0.707107 -0.707107
-0.000000 0.707107 0.707107
0.707107 0.707107 -0.000000
-0.000000 -0.707107 0.707107
-0.707107 0.000000 -0.707107
0.000000 0.707107 -0.707107
-0.000000 -0.707107 0.707107
-0.000000 -0.707107 0.707107
0.000000 0.707107 -0.707107
-0.000000 0.707107 -0.707107
0.000000 -0.707107 0.707107
-0.000000 -0.707107 0.707107
0.000000 0.707107 -0.707107
-0.707107 0.707107 -0.000000
0.000000 -0.707107 0.707107
0.707107 0.000000 -0.707107
-0.000000 -0.707107 0.707107
-0.000000 0.707107 0.707107
0.000000 -0.000000 -1.414214
-0.000000 0.707107 0.707107
0.707107 -0.707107 0.000000
-0.707107 0.000000 -0.707107
0.000000 0.707107 -0.707107
-0.000000 -0.707107 0.707107
-0.707107 -0.000000 0.707107
0.707107 -0.707107 0.000000
-0.000000 0.707107 -0.707107
0.000000 0.707107 -0.707107
0.707107 -0.000000 0.707107
-0.707107 -0.707107 -0.000000
-0.707107 -0.707107 0.000000
0.707107 0.707107 -0.000000
-0.707107 0.707107 -0.000000
0.707107 -0.707107 -0.000000
0.000000 0.707107 0.707107
-0.000000 -0.707107 -0.707107
0.707107 -0.000000 -0.707107
-0.000000 0.707107 0.707107
-0.707107 0.707107 -0.000000
0.000000 -1.414214 -0.000000
-0.707107 0.707107 0.000000
0.707107 -0.707107 0.000000
-0.000000 0.707107 -0.707107
0.000000 -0.707107 0.707107
0.000000 -0.707107 0.707107
-0.000000 0.707107 -0.707107
0.707107 0.000000 0.707107
-0.707107 -0.000000 -0.707107
-0.707107 -0.707107 0.000000
0.707107 -0.000000 0.707107
0.000000 0.707107 -0.707107
-0.000000 0.707107 -0.707107
0.000000 -0.707107 0.707107
0.707107 -0.707107 0.000000
-0.707107 0.000000 -0.707107
-0.000000 0.707107 0.707107
0.000000 -0.707107 0.707107
-0.000000 0.707107 -0.707107
-0.707107 -0.000000 -0.707107
0.707107 -0.000000 0.707107
0.000000 -0.707107 -0.707107
-0.000000 0.707107 0.707107
0.707107 -0.000000 0.707107
-0.707107 0.000000 -0.707107
0.707107 0.707107 0.000000
0.000000 -0.707107 -0.707107
-0.707107 0.000000 0.707107
0.000000 0.707107 -0.707107
0.000000 -0.707107 0.707107
-0.707107 -0.707107 0.000000
0.707107 0.707107 -0.000000
-0.707107 0.000000 0.707107
0.707107 -0.000000 -0.707107
0.707107 -0.000000 -0.707107
-0.707107 0.707107 -0.000000
0.000000 -0.707107 0.707107
0.707107 -0.707107 0.000000
-0.707107 0.707107 -0.000000
-0.707107 -0.707107 0.000000
0.707107 0.707107 0.000000
-0.707107 0.000000 0.707107
0.707107 0.000000 -0.707107
0.000000 -0.707107 0.707107
-0.000000 0.707107 -0.707107
-0.707107 -0.707107 -0.000000
0.707107 0.707107 -0.000000
0.000000 -0.707107 -0.707107
-0.000000 0.707107 0.707107
-0.707107 0.000000 0.707107
0.707107 -0.000000 -0.707107
0.707107 -0.707107 0.000000
-0.707107 0.707107 -0.000000
-0.707107 0.000000 -0.707107
-0.707107 0.000000 -0.707107
0.707107 -0.000000 0.707107
-0.707107 0.000000 0.707107
0.707107 -0.000000 -0.707107
0.000000 -0.707107 -0.707107
-0.000000 0.707107 0.707107
0.707107 -0.000000 -0.707107
-0.707107 0.000000 0.707107
0.000000 -0.707107 -0.707107
0.707107 0.000000 0.707107
-0.707107 0.707107 0.000000
0.707107 -0.000000 -0.707107
-0.707107 0.000000 0.707107
-0.000000 -0.707107 -0.707107
-0.000000 0.707107 0.707107
-0.707107 -0.000000 -0.707107
0.707107 0.000000 0.707107
0.707107 0.000000 -0.707107
-0.707107 0.707107 -0.000000
-0.000000 -0.707107 0.707107
-0.707107 -0.707107 0.000000
0.707107 0.707107 -0.000000
0.707107 0.707107 -0.000000
0.000000 0.707107 -0.707107
-0.000000 0.707107 0.707107
0.000000 -0.707107 -0.707107
-0.000000 -0.707107 0.707107
0.707107 0.707107 0.000000
-0.707107 -0.707107 -0.000000
0.707107 0.707107 -0.000000
-0.707107 -0.707107 0.000000
0.707107 0.000000 0.707107
0.000000 -0.707107 -0.707107
-0.707107 0.707107 0.000000
0.000000 -0.707107 0.707107
-0.000000 0.707107 -0.707107
-0.707107 -0.707107 0.000000
0.707107 0.707107 -0.000000
0.707107 0.000000 -0.707107
-0.707107 -0.000000 0.707107
0.707107 0.000000 -0.707107
-0.707107 -0.000000 0.707107
0.000000 -0.707107 -0.707107
-0.707107 0.000000 0.707107
0.707107 0.707107 -0.000000
0.000000 -0.707107 -0.707107
-0.000000 0.707107 0.707107
0.000000 0.707107 -0.707107
-0.000000 -0.707107 0.707107
-0.000000 -0.000000 1.414214
-0.000000 -0.707107 -0.707107
0.000000 0.707107 -0.707107
0.000000 0.707107 0.707107
-0.000000 -1.414214 -0.000000
-0.707107 -0.000000 -0.707107
0.707107 0.707107 -0.000000
-0.707107 -0.707107 0.000000
0.707107 0.707107 0.000000
-0.707107 0.000000 0.707107
0.707107 0.707107 -0.000000
0.000000 -0.707107 -0.707107
0.000000 -0.707107 -0.707107
-0.707107 0.707107 -0.000000
0.707107 0.000000 0.707107
-0.707107 -0.000000 -0.707107
0.707107 0.000000 0.707107
0.000000 -0.707107 -0.707107
0.707107 0.707107 0.000000
0.000000 -0.707107 0.707107
-0.707107 0.707107 0.000000
-0.707107 0.707107 0.000000
0.707107 -0.707107 0.000000
-0.707107 -0.000000 0.707107
0.707107 -0.000000 -0.707107
0.000000 0.707107 0.707107
-0.000000 -0.707107 -0.707107
-0.707107 0.000000 -0.707107
-0.000000 0.707107 0.707107
0.707107 -0.707107 -0.000000
-0.707107 0.000000 0.707107
0.707107 0.000000 -0.707107
0.000000 -1.414214 0.000000
-0.000000 1.414214 -0.000000
-0.707107 -0.707107 0.000000
0.707107 0.000000 0.707107
-0.000000 0.707107 -0.707107
-0.000000 -0.707107 -0.707107
-0.000000 -0.707107 -0.707107
-0.000000 0.707107 0.707107
-0.707107 0.707107 -0.000000
0.707107 -0.707107 0.000000
0.707107 -0.707107 0.000000
0.707107 0.707107 0.000000
-0.707107 -0.707107 0.000000
0.707107 -0.707107 -0.000000
-0.707107 0.707107 -0.000000
-0.000000 0.707107 -0.707107
0.000000 -0.707107 0.707107
-0.707107 0.707107 0.000000
0.707107 -0.707107 -0.000000
-0.000000 0.707107 0.707107
-0.000000 0.707107 -0.707107
0.000000 -0.707107 0.707107
0.000000 -0.707107 -0.707107
0.000000 -0.707107 -0.707107
0.707107 0.707107 -0.000000
-0.707107 -0.000000 0.707107
0.000000 -0.707107 -0.707107
-0.000000 0.707107 0.707107
-0.707107 0.707107 -0.000000
0.707107 -0.707107 0.000000
0.000000 0.707107 -0.707107
-0.000000 -0.707107 0.707107
0.000000 -0.707107 -0.707107
-0.000000 0.707107 0.707107
-0.707107 -0.707107 -0.000000
0.707107 0.707107 0.000000
-0.707107 -0.707107 -0.000000
-0.000000 0.707107 0.707107
0.000000 -0.707107 -0.707107
-0.707107 -0.000000 -0.707107
0.707107 0.000000 0.707107
-0.707107 0.000000 0.707107
0.707107 -0.000000 -0.707107
-0.000000 0.707107 -0.707107
-0.707107 0.000000 0.707107
0.707107 -0.707107 -0.000000
0.000000 0.707107 0.707107
-0.000000 -0.707107 -0.707107
0.707107 0.707107 -0.000000
-0.707107 0.000000 -0.707107
0.000000 -0.707107 0.707107
0.707107 0.000000 -0.707107
-0.707107 -0.000000 0.707107
0.707107 0.000000 0.707107
-0.707107 0.000000 -0.707107
-0.000000 -0.000000 1.414214
-0.707107 0.000000 -0.707107
0.000000 0.707107 -0.707107
0.707107 -0.707107 0.000000
0.000000 0.707107 -0.707107
-0.000000 -0.707107 0.707107
-0.707107 -0.000000 -0.707107
0.707107 0.000000 0.707107
0.000000 1.414214 0.000000
-0.000000 -0.707107 0.707107
-0.000000 -0.707107 -0.707107
0.000000 -0.707107 -0.707107
-0.707107 0.707107 0.000000
0.707107 0.000000 0.707107
-0.707107 0.000000 0.707107
0.707107 0.000000 -0.707107
-0.707107 -0.707107 -0.000000
0.707107 0.707107 0.000000
0.707107 0.707107 -0.000000
-0.707107 -0.707107 0.000000
0.707107 0.000000 -0.707107
-0.707107 -0.000000 0.707107
-0.707107 -0.000000 -0.707107
0.707107 0.707107 -0.000000
-0.000000 -0.707107 0.707107
-0.707107 -0.707107 0.000000
0.707107 0.707107 -0.000000
0.707107 0.000000 -0.707107
-0.707107 -0.707107 0.000000
0.000000 0.707107 0.707107
0.707107 -0.000000 0.707107
-0.707107 0.000000 -0.707107
0.707107 0.707107 0.000000
-0.707107 -0.707107 -0.000000
0.707107 -0.000000 0.707107
-0.707107 0.000000 -0.707107
-0.000000 -0.707107 -0.707107
0.000000 0.707107 0.707107
-0.707107 0.707107 0.000000
0.707107 -0.707107 -0.000000
-0.707107 -0.707107 -0.000000
0.707107 0.000000 0.707107
0.000000 0.707107 -0.707107
-0.000000 0.707107 0.707107
0.000000 -0.707107 -0.707107
-0.000000 0.707107 0.707107
0.000000 -0.707107 -0.707107
0.000000 -0.707107 -0.707107
-0.000000 0.707107 0.707107
-0.707107 0.707107 0.000000
-0.000000 -0.707107 -0.707107
0.707107 0.000000 0.707107
-0.707107 -0.000000 -0.707107
-0.707107 -0.707107 -0.000000
0.707107 0.000000 0.707107
0.707107 0.707107 -0.000000
-0.707107 0.707107 -0.000000
0.707107 0.000000 0.707107
-0.000000 -0.707107 -0.707107
0.000000 -0.707107 0.707107
0.707107 0.707107 0.000000
-0.707107 -0.000000 -0.707107
-0.000000 0.707107 0.707107
-0.707107 -0.707107 0.000000
0.707107 -0.000000 -0.707107
0.000000 -0.707107 -0.707107
-0.707107 0.000000 0.707107
-0.707107 0.707107 0.000000
1.414214 0.000000 -0.000000
-0.000000 0.707107 0.707107
0.000000 -0.707107 -0.707107
-0.000000 -0.707107 -0.707107
0.000000 0.707107 0.707107
0.707107 -0.707107 0.000000
-0.707107 0.707107 0.000000
0.707107 -0.000000 -0.707107
-0.707107 0.000000 0.707107
-0.707107 0.000000 0.707107
0.707107 -0.000000 -0.707107
-0.707107 0.707107 0.000000
0.707107 -0.707107 -0.000000
0.707107 -0.707107 0.000000
-0.707107 0.707107 -0.000000
0.707107 0.707107 0.000000
-0.000000 -0.707107 0.707107
-0.707107 0.000000 -0.707107
0.707107 0.000000 0.707107
-0.707107 -0.000000 -0.707107
0.000000 0.707107 0.707107
0.000000 -0.707107 -0.707107
-0.707107 0.707107 -0.000000
-0.707107 -0.707107 0.000000
1.414214 0.000000 -0.000000
0.707107 0.000000 0.707107
0.000000 -0.707107 -0.707107
-0.707107 0.000000 0.707107
0.707107 0.707107 0.000000
0.000000 0.707107 -0.707107
0.000000 -0.707107 0.707107
-0.707107 -0.000000 -0.707107
0.707107 0.000000 0.707107
-0.707107 0.000000 -0.707107
0.707107 -0.000000 0.707107
-0.707107 0.707107 0.000000
0.000000 -0.707107 0.707107
0.707107 -0.000000 -0.707107
0.000000 -0.707107 0.707107
-0.000000 0.707107 -0.707107
0.000000 0.707107 0.707107
-0.000000 -0.707107 -0.707107
-0.707107 -0.707107 0.000000
0.707107 0.000000 0.707107
0.000000 0.707107 -0.707107
-0.707107 -0.000000 0.707107
0.707107 0.000000 -0.707107
0.707107 -0.707107 -0.000000
-0.707107 0.707107 0.000000
0.707107 0.707107 0.000000
0.000000 -0.707107 -0.707107
-0.707107 -0.000000 0.707107
-0.000000 -0.707107 0.707107
-0.707107 0.707107 0.000000
0.707107 0.000000 -0.707107
-0.000000 0.707107 0.707107
0.707107 -0.707107 0.000000
-0.707107 0.000000 -0.707107
-0.707107 -0.000000 0.707107
0.707107 -0.000000 -0.707107
0.707107 0.000000 -0.707107
-0.707107 -0.000000 0.707107
0.000000 -0.707107 0.707107
0.000000 0.707107 -0.707107
0.707107 0.707107 0.000000
-0.707107 -0.707107 -0.000000
0.000000 0.707107 0.707107
0.000000 -0.707107 -0.707107
0.000000 0.707107 -0.707107
-0.000000 -0.707107 0.707107
0.707107 0.000000 -0.707107
-0.707107 0.000000 0.707107
0.707107 0.000000 0.707107
-0.707107 -0.000000 -0.707107
-0.707107 -0.707107 -0.000000
0.707107 0.707107 0.000000
0.000000 0.707107 -0.707107
-0.000000 -0.707107 0.707107
-0.000000 0.707107 0.707107
0.000000 -0.707107 -0.707107
0.000000 0.707107 -0.707107
-0.000000 -0.707107 0.707107
-0.707107 0.707107 -0.000000
0.707107 -0.000000 -0.707107
0.000000 -0.707107 0.707107
-0.000000 -0.707107 0.707107
-0.000000 0.707107 -0.707107
0.707107 0.707107 -0.000000
-0.707107 0.000000 0.707107
0.000000 -0.707107 0.707107
-0.000000 0.707107 -0.707107
0.000000 0.707107 0.707107
-0.000000 -0.707107 -0.707107
0.000000 0.707107 0.707107
-0.000000 -0.707107 -0.707107
0.000000 0.000000 1.414214
0.707107 0.000000 -0.707107
-0.707107 -0.000000 -0.707107
-0.707107 -0.707107 0.000000
0.707107 0.707107 -0.000000
0.707107 0.000000 0.707107
-0.707107 -0.000000 -0.707107
-0.707107 -0.000000 0.707107
0.707107 0.707107 -0.000000
0.000000 -0.707107 -0.707107
0.707107 0.707107 -0.000000
-0.707107 -0.707107 0.000000
-0.707107 -0.707107 -0.000000
0.707107 0.707107 -0.000000
0.707107 0.000000 0.707107
-0.707107 -0.000000 -0.707107
-0.000000 0.707107 0.707107
-0.000000 0.707107 0.707107
0.000000 -0.707107 -0.707107
0.000000 -0.707107 0.707107
-0.000000 0.707107 -0.707107
-0.707107 0.000000 -0.707107
0.707107 -0.000000 0.707107
-0.707107 0.000000 -0.707107
0.707107 -0.000000 0.707107
0.707107 0.707107 0.000000
-0.707107 -0.707107 -0.000000
0.000000 -0.707107 -0.707107
0.000000 0.707107 0.707107
0.707107 -0.000000 0.707107
-0.707107 0.000000 -0.707107
0.707107 -0.707107 0.000000
-0.707107 0.707107 -0.000000
0.000000 0.707107 0.707107
-0.707107 -0.707107 0.000000
0.707107 0.000000 -0.707107
0.707107 0.707107 -0.000000
-0.707107 -0.707107 -0.000000
-0.707107 0.000000 0.707107
0.707107 -0.000000 -0.707107
-0.000000 0.707107 0.707107
-0.000000 -0.707107 -0.707107
-0.707107 0.000000 0.707107
0.707107 -0.000000 -0.707107
0.707107 0.707107 0.000000
-0.707107 -0.707107 -0.000000
0.000000 -0.707107 0.707107
-0.000000 0.707107 -0.707107
-0.707107 0.707107 0.000000
0.707107 -0.707107 -0.000000
0.707107 -0.000000 -0.707107
-0.707107 0.000000 0.707107
0.707107 0.707107 0.000000
-0.707107 -0.707107 -0.000000
-0.000000 -0.707107 0.707107
-0.000000 -0.707107 0.707107
0.707107 0.000000 -0.707107
-0.707107 0.707107 0.000000
0.000000 -0.707107 0.707107
-0.000000 0.707107 -0.707107
0.000000 0.707107 -0.707107
-0.000000 -0.707107 0.707107
-0.707107 -0.000000 0.707107
0.707107 0.000000 -0.707107
-0.707107 -0.707107 -0.000000
0.707107 0.707107 0.000000
-0.000000 -0.707107 -0.707107
0.000000 0.707107 0.707107
0.707107 0.000000 -0.707107
-0.707107 0.707107 0.000000
-0.000000 -0.707107 0.707107
0.707107 0.000000 0.707107
-0.707107 -0.000000 -0.707107
0.707107 -0.707107 0.000000
-0.707107 0.707107 -0.000000
-0.707107 0.000000 -0.707107
0.707107 -0.707107 -0.000000
-0.000000 0.707107 0.707107
-0.707107 0.000000 0.707107
0.707107 -0.707107 0.000000
0.000000 0.707107 -0.707107
0.707107 0.707107 0.000000
-0.707107 -0.707107 0.000000
-0.000000 -0.707107 0.707107
-0.000000 0.707107 -0.707107
-0.000000 -0.707107 -0.707107
-0.000000 0.707107 0.707107
-0.707107 0.707107 0.000000
0.707107 -0.000000 0.707107
-0.000000 -0.707107 -0.707107
-0.000000 -0.707107 0.707107
0.000000 0.707107 -0.707107
0.707107 0.000000 -0.707107
0.000000 -0.707107 0.707107
-0.707107 0.707107 0.000000
-0.707107 0.000000 0.707107
0.707107 -0.000000 -0.707107
0.707107 0.000000 -0.707107
0.000000 -0.707107 0.707107
-0.707107 0.707107 0.000000
0.707107 0.707107 -0.000000
-0.707107 -0.707107 -0.000000
-0.707107 -0.000000 0.707107
0.707107 0.707107 -0.000000
0.000000 -0.707107 -0.707107
0.707107 0.707107 0.000000
-0.707107 0.000000 0.707107
-0.707107 -0.000000 -0.707107
-0.000000 0.707107 -0.707107
-0.000000 -0.000000 1.414214
0.000000 -0.707107 -0.707107
0.707107 -0.000000 0.707107
-0.000000 -0.707107 -0.707107
-0.707107 0.707107 0.000000
-0.707107 -0.000000 -0.707107
0.707107 -0.000000 0.707107
0.000000 -0.707107 -0.707107
-0.000000 0.707107 0.707107
0.707107 0.000000 0.707107
-0.707107 -0.000000 -0.707107
0.707107 0.000000 0.707107
-0.707107 0.000000 -0.707107
-0.707107 -0.000000 0.707107
0.707107 0.000000 -0.707107
-0.707107 0.707107 -0.000000
0.000000 -0.707107 0.707107
0.707107 -0.000000 -0.707107
0.707107 0.707107 0.000000
-0.707107 -0.707107 -0.000000
0.707107 -0.707107 0.000000
-0.707107 0.707107 -0.000000
0.707107 0.000000 -0.707107
-0.707107 0.000000 0.707107
0.000000 -0.707107 0.707107
0.707107 0.707107 -0.000000
-0.707107 0.000000 -0.707107
-0.000000 0.707107 0.707107
-0.707107 -0.707107 0.000000
0.707107 0.000000 -0.707107
0.707107 0.707107 0.000000
0.707107 -0.707107 0.000000
-0.707107 0.707107 0.000000
-0.707107 -0.707107 0.000000
-0.000000 0.707107 0.707107
0.000000 -0.707107 -0.707107
0.000000 -0.707107 -0.707107
0.707107 0.707107 -0.000000
-0.707107 -0.707107 0.000000
0.000000 -0.707107 -0.707107
-0.707107 0.707107 0.000000
0.707107 -0.000000 0.707107
0.000000 0.707107 -0.707107
-0.707107 -0.000000 0.707107
0.707107 -0.707107 -0.000000
0.000000 -0.707107 0.707107
0.707107 -0.000000 -0.707107
0.707107 -0.707107 -0.000000
-0.707107 0.000000 0.707107
-0.000000 0.707107 -0.707107
-0.707107 0.000000 -0.707107
-0.000000 -0.707107 0.707107
0.707107 0.707107 0.000000
-0.000000 -0.707107 0.707107
0.707107 -0.000000 -0.707107
-0.707107 0.707107 0.000000
0.000000 0.707107 0.707107
-0.707107 0.000000 -0.707107
0.707107 -0.707107 0.000000
0.707107 -0.000000 -0.707107
-0.000000 -0.707107 0.707107
-0.707107 0.707107 0.000000
0.707107 -0.707107 -0.000000
0.707107 0.707107 -0.000000
-0.000000 -0.707107 0.707107
-0.707107 0.000000 -0.707107
-0.707107 0.000000 0.707107
0.707107 -0.000000 -0.707107
-0.707107 0.000000 0.707107
0.707107 -0.000000 -0.707107
0.000000 -0.707107 -0.707107
0.000000 -0.707107 -0.707107
-0.000000 0.707107 0.707107
-0.000000 0.707107 0.707107
0.707107 0.000000 -0.707107
-0.707107 -0.707107 -0.000000
-0.000000 0.707107 -0.707107
0.707107 -0.707107 -0.000000
-0.707107 0.000000 0.707107
-0.707107 -0.000000 -0.707107