# vtk DataFile Version 3.0
Configuration exported from OpenDiS
ASCII
DATASET UNSTRUCTURED_GRID
POINTS 51132 FLOAT
-29412.000000 -29412.000000 -29412.000000
29412.000000 -29412.000000 -29412.000000
-29412.000000 29412.000000 -29412.000000
-29412.000000 -29412.000000 29412.000000
29412.000000 29412.000000 -29412.000000
29412.000000 -29412.000000 29412.000000
-29412.000000 29412.000000 29412.000000
29412.000000 29412.000000 29412.000000
20997.086845 2835.375049 4605.808833
20996.610711 2851.252983 4589.454765
20997.086845 2835.375049 4605.808833
20480.118089 3008.863243 5296.265783
-10073.173489 -2799.071629 25637.848705
-10257.715433 -2980.538205 26003.857224
-10073.173489 -2799.071629 25637.848705
-10206.653810 -2665.591309 25637.848705
-10073.173489 -2799.071629 25637.848705
-9891.706914 -3211.092558 25407.294351
-6588.923647 -24654.541582 6960.241157
-7646.345947 -24582.794338 5831.071612
-6588.923647 -24654.541582 6960.241157
-5695.986102 -24582.794338 7781.431457
3966.221363 22477.840323 22762.497470
3966.221363 23082.035760 21938.315005
3966.221363 22477.840323 22762.497470
3966.221363 22028.159048 23149.793577
-21831.810436 -328.716133 9550.036876
-22145.402263 -827.449781 8737.717914
-21831.810436 -328.716133 9550.036876
-20769.297706 -1391.422327 9550.230340
-21831.810436 -328.716133 9550.036876
-21730.301790 126.454197 8993.357900
-14996.876179 -13446.809434 -20047.097355
-14442.316751 -12392.324952 -20547.022408
-14996.876179 -13446.809434 -20047.097355
-15369.685401 -14355.976032 -19510.739979
-15272.187922 -7316.817392 -28937.483525
-16459.805906 -7792.202744 -28225.250892
-15272.187922 -7316.817392 -28937.483525
-14714.010181 -7156.052926 -29334.896799
-22658.676728 23133.863872 -25404.634672
-23447.857327 23379.565824 -24861.160150
-22658.676728 23133.863872 -25404.634672
-21833.747664 22863.954682 -25959.646299
-7280.686431 -22619.649017 -21364.026053
-5720.908537 -21941.100036 -22245.254967
-7280.686431 -22619.649017 -21364.026053
-8490.403395 -23838.622026 -21373.282098
-23916.232987 -22002.972459 23844.406474
-23916.232987 -21724.690524 23566.124534
-23916.232987 -22002.972459 23844.406474
-24022.573459 -21991.651853 23962.067552
-23916.232987 -22002.972459 23844.406474
-24261.682081 -22766.608871 24262.593839
-23608.614564 714.577776 -17389.270042
-23608.615288 1387.662517 -18062.351178
-23608.614564 714.577776 -17389.270042
-23608.613979 -18.491965 -16664.984855
6275.279168 -5092.240225 11582.564643
7134.542150 -5283.352975 10914.414410
6275.279168 -5092.240225 11582.564643
5539.620432 -4986.383649 12212.366803
16775.240555 429.726771 2783.921847
16081.938748 1166.941802 2740.008622
16775.240555 429.726771 2783.921847
16360.708445 694.670930 2104.445577
16775.240555 429.726771 2783.921847
16775.240555 -919.326849 4132.975466
12463.362994 -15720.390866 -23469.591292
13175.743170 -15643.588967 -22834.105443
12463.362994 -15720.390866 -23469.591292
12190.095369 -15742.910481 -23720.273402
-12288.879066 238.204862 20859.657659
-11749.383609 -933.229957 21491.597021
-12288.879066 238.204862 20859.657659
-12650.168925 931.358436 20527.793943
-19694.555991 23205.076623 -14541.794414
-19191.607201 24219.375557 -13024.546690
-19694.555991 23205.076623 -14541.794414
-20232.464379 22833.119448 -14707.745626
-11013.974284 -21669.060961 -23579.649955
-10787.824677 -21296.466990 -23433.205591
-11013.974284 -21669.060961 -23579.649955
-11461.402344 -22195.427349 -23658.588283
9395.424843 -22737.304379 1105.351420
9191.809331 -22966.886375 672.153912
9395.424843 -22737.304379 1105.351420
9820.594575 -22630.734709 1637.090822
247.995648 -10281.721982 27355.800614
-891.378167 -10597.694348 26532.399165
247.995648 -10281.721982 27355.800614
967.547313 -9948.335758 27741.966055
-5949.324809 -3539.278239 25963.452373
-5079.436723 -4410.285818 25963.452373
-5949.324809 -3539.278239 25963.452373
-5791.335390 -3539.278239 25805.462954
-14960.412353 15736.431501 -22595.932534
-15594.704541 16844.114668 -22122.541555
-14960.412353 15736.431501 -22595.932534
-15783.733889 14329.618349 -23179.424151
-25716.678370 -27909.322456 24181.786221
-25826.846330 -28070.635840 24130.640797
-25716.678370 -27909.322456 24181.786221
-24258.605339 -28710.728978 23525.119712
-25716.678370 -27909.322456 24181.786221
-26043.365069 -27909.322456 24508.472920
-22232.772994 -1788.625244 -14826.454116
-21363.547578 -1788.625244 -15695.679532
-22232.772994 -1788.625244 -14826.454116
-22440.736603 -2080.785061 -14326.330690
-22232.772994 -1788.625244 -14826.454116
-22976.544416 -1432.317325 -15216.145389
3462.985897 4006.114152 22474.274200
2716.549220 3970.556864 23185.153589
3462.985897 4006.114152 22474.274200
3691.092778 3967.967728 22208.020896
-15955.930548 11296.490360 13468.423644
-16897.020002 11807.357291 13898.646166
-15955.930548 11296.490360 13468.423644
-15154.320347 10836.190771 13127.113031
-21310.368758 -10284.502097 23878.712435
-21768.296986 -10114.394685 24166.533251
-21310.368758 -10284.502097 23878.712435
-20702.810414 -10068.141146 23487.515042
-21310.368758 -10284.502097 23878.712435
-21675.167164 -8994.149237 22953.157981
-8555.744989 14684.960822 22309.708019
-8086.840922 14622.173904 21903.590869
-8555.744989 14684.960822 22309.708019
-9105.042960 14750.539196 22793.428229
-21105.339976 -3550.448439 -25051.999610
-20251.500517 -4407.972979 -25055.684691
-21105.339976 -3550.448439 -25051.999610
-21770.122936 -3038.470889 -25204.805020
8363.163884 -11757.606303 -26050.448341
7155.406585 -10840.860938 -25759.436408
8363.163884 -11757.606303 -26050.448341
9532.102055 -12339.704800 -26635.915274
25585.320732 -3266.662310 16474.115073
25505.392334 -3532.561224 16128.287285
25585.320732 -3266.662310 16474.115073
25757.640663 -2338.819662 17574.277652
-14903.910750 25979.818256 -24764.994816
-14000.382901 25994.545150 -25653.795772
-14903.910750 25979.818256 -24764.994816
-15771.246960 25920.099725 -23957.377137
16056.277903 -15374.715691 -18578.147820
16825.006495 -16143.444282 -18578.147820
16056.277903 -15374.715691 -18578.147820
15647.096319 -16705.943249 -19500.193794
-1571.814471 -29058.143509 22204.340022
-1589.827599 -29412.000003 21832.470400
-1589.827599 29411.999985 21832.470400
-1607.180658 29071.110135 21474.227479
-1571.814471 -29058.143509 22204.340022
-1675.087383 -28167.534725 22991.720823
13380.788523 -6131.616169 -654.708621
14321.201578 -5776.478632 -1239.984210
13380.788523 -6131.616169 -654.708621
12814.252622 -6316.443931 -273.000418
28741.853415 20363.348143 -24687.827868
27731.238034 20358.732972 -25693.828078
28741.853415 20363.348143 -24687.827868
29411.999995 20558.909785 -24213.242930
-29411.999993 20558.909785 -24213.242930
-29323.494444 20584.737407 -24150.564991
-12846.181207 -18761.234824 12848.975439
-13274.788413 -18786.578943 12445.718616
-12846.181207 -18761.234824 12848.975439
-11955.144963 -18592.550144 13571.327003
-17058.003807 -22111.358626 -11878.076969
-16395.981760 -22111.358626 -12540.087444
-17058.003807 -22111.358626 -11878.076969
-18362.383315 -22111.380023 -10564.962853
-27376.243307 24232.512426 -14039.748705
-28712.302900 24113.626562 -12822.567648
-27376.243307 24232.512426 -14039.748705
-26578.381635 24094.570800 -14975.555700
-22698.805219 -7423.874185 -12580.242960
-21816.585769 -7667.016342 -13705.604568
-22698.805219 -7423.874185 -12580.242960
-23227.841960 -7253.341595 -11880.673630
-8775.028509 -10116.615766 16560.411146
-9304.395893 -9766.077196 16381.582332
-8775.028509 -10116.615766 16560.411146
-8266.646067 -10565.392052 16620.017303
-29186.180509 -26836.787398 26578.077146
-28765.522365 -27585.943535 26907.927450
-29186.180509 -26836.787398 26578.077146
-29412.000002 -26734.694836 26701.804078
29411.999986 -26734.694836 26701.804078
28889.488291 -26498.468291 26988.089240
-29186.180509 -26836.787398 26578.077146
-28901.364480 -26499.137763 25955.611483
-25024.399861 -13453.500698 -25321.954892
-25072.620878 -13229.936752 -25497.297820
-25024.399861 -13453.500698 -25321.954892
-24241.340479 -13452.419075 -26103.932652
-25024.399861 -13453.500698 -25321.954892
-25504.253325 -13821.635643 -25210.236373
5918.972185 -15603.789782 3120.442213
5745.110614 -15859.412364 2690.958060
5918.972185 -15603.789782 3120.442213
5774.604768 -15058.886759 2719.906607
5918.972185 -15603.789782 3120.442213
5918.972185 -15631.370031 3148.022461
-4416.623216 -17847.084355 -23794.689691
-3602.606054 -18661.526471 -23794.689691
-4416.623216 -17847.084355 -23794.689691
-5179.396491 -17084.310231 -23794.689691
16262.888389 -12457.370889 -8779.209704
17614.600408 -13870.606417 -8717.686196
16262.888389 -12457.370889 -8779.209704
14998.830855 -12059.878363 -7912.644697
-55.061343 -20128.517856 18339.989477
-55.061343 -20876.448412 17583.645410
-55.061343 -20128.517856 18339.989477
-55.061343 -19656.215800 18810.924868
11944.946114 5624.186882 15940.325469
12224.527094 5331.185349 15926.904916
11944.946114 5624.186882 15940.325469
11789.133168 5972.542590 16132.868231
-370.662201 -7143.625382 24196.248505
-834.030826 -6389.568240 24486.937023
-370.662201 -7143.625382 24196.248505
590.991818 -7051.712898 23326.506970
17341.944081 -4679.825020 -25272.361461
17053.641097 -3756.233520 -25907.649977
17341.944081 -4679.825020 -25272.361461
17862.474775 -5610.527352 -24862.189822
-5711.912194 9283.330993 26107.306476
-5098.662930 8578.959766 26016.184513
-5711.912194 9283.330993 26107.306476
-6152.540258 9811.004501 26194.351920
-12720.391940 10692.471916 -14379.300685
-13389.292324 9906.230566 -14261.959719
-12720.391940 10692.471916 -14379.300685
-11995.192159 11506.580904 -14468.209892
21254.552967 -14397.991189 -12855.321675
22297.576432 -14374.688245 -11835.457663
21254.552967 -14397.991189 -12855.321675
20414.336206 -14399.553763 -13693.832377
382.059049 27391.990718 10226.838053
804.480311 27579.458300 10836.726898
382.059049 27391.990718 10226.838053
-23.803539 27279.170091 9708.154839
20258.475508 -21156.693029 -10628.327060
21020.718434 -22246.795006 -10956.186871
[...]
CELL_DATA 25563
VECTORS Burgers FLOAT
0.000000 0.000000 0.000000
0.707107 0.707107 0.000000
-0.707107 -0.707107 0.000000
0.707107 -0.000000 -0.707107
-0.707107 -0.707107 0.000000
-0.000000 0.707107 0.707107
0.707107 0.707107 0.000000
-0.707107 -0.707107 -0.000000
0.000000 -0.707107 -0.707107
-0.000000 0.707107 0.707107
-0.000000 -0.707107 -0.707107
0.707107 0.707107 -0.000000
-0.707107 0.000000 0.707107
0.000000 -0.707107 0.707107
-0.000000 0.707107 -0.707107
0.707107 0.000000 -0.707107
-0.707107 -0.000000 0.707107
0.707107 -0.707107 0.000000
-0.707107 0.707107 -0.000000
0.000000 0.707107 0.707107
-0.000000 -0.707107 -0.707107
-0.000000 0.000000 1.414214
-0.000000 -0.707107 -0.707107
-0.000000 0.707107 -0.707107
-0.000000 0.707107 0.707107
0.000000 -0.707107 -0.707107
-0.707107 0.000000 0.707107
0.707107 -0.000000 -0.707107
0.000000 -0.707107 0.707107
-0.707107 0.000000 -0.707107
0.707107 0.707107 -0.000000
0.000000 0.707107 -0.707107
-0.000000 -0.707107 0.707107
0.707107 -0.707107 0.000000
-0.707107 0.707107 -0.000000
0.707107 0.000000 0.707107
-0.707107 -0.000000 -0.707107
0.707107 0.000000 -0.707107
-0.707107 -0.000000 0.707107
-0.707107 0.707107 0.000000
0.707107 -0.707107 -0.000000
0.000000 0.707107 -0.707107
-0.000000 -0.707107 0.707107
0.707107 0.707107 0.000000
-0.707107 -0.707107 0.000000
-0.000000 -0.707107 -0.707107
0.000000 0.707107 0.707107
-0.707107 -0.707107 0.000000
0.000000 0.707107 -0.707107
0.707107 -0.000000 0.707107
-0.707107 -0.000000 -0.707107
0.707107 -0.707107 0.000000
-0.000000 0.707107 0.707107
0.707107 0.000000 -0.707107
-0.707107 -0.000000 0.707107
0.707107 -0.707107 0.000000
-0.707107 0.707107 -0.000000
-0.000000 0.707107 -0.707107
-0.707107 -0.000000 0.707107
0.707107 -0.707107 -0.000000
-0.000000 0.707107 -0.707107
0.000000 -0.707107 0.707107
-0.707107 0.707107 -0.000000
0.707107 -0.707107 0.000000
0.000000 -0.707107 0.707107
-0.000000 0.707107 -0.707107
0.000000 0.707107 0.707107
-0.000000 -0.707107 -0.707107
-0.707107 -0.000000 0.707107
0.707107 0.000000 -0.707107
0.707107 0.707107 0.000000
-0.707107 -0.707107 0.000000
0.000000 0.707107 0.707107
0.000000 0.707107 0.707107
-0.000000 -0.707107 -0.707107
-0.707107 0.000000 0.707107
0.707107 -0.000000 -0.707107
0.000000 -0.707107 0.707107
-0.000000 0.707107 -0.707107
-0.000000 0.707107 -0.707107
0.707107 -0.000000 0.707107
-0.707107 0.000000 -0.707107
-0.707107 0.000000 -0.707107
0.707107 -0.000000 0.707107
0.707107 0.707107 0.000000
-0.707107 -0.707107 -0.000000
-0.707107 -0.707107 0.000000
0.707107 0.707107 -0.000000
0.000000 -0.707107 -0.707107
-0.000000 0.707107 0.707107
0.000000 0.707107 -0.707107
0.707107 -0.707107 0.000000
0.707107 -0.707107 0.000000
-0.707107 -0.000000 0.707107
-0.707107 -0.000000 0.707107
0.000000 -0.707107 -0.707107
0.707107 0.707107 -0.000000
0.000000 0.707107 0.707107
-0.000000 -0.707107 0.707107
-0.000000 -0.000000 -1.414214
0.707107 0.707107 0.000000
-0.707107 -0.707107 -0.000000
-0.000000 -0.707107 0.707107
0.000000 0.707107 -0.707107
-0.000000 -0.707107 0.707107
0.000000 0.707107 -0.707107
0.707107 0.000000 0.707107
-0.707107 -0.000000 -0.707107
0.000000 0.707107 0.707107
-0.000000 -0.707107 -0.707107
-0.707107 -0.000000 0.707107
0.707107 0.000000 -0.707107
-0.707107 0.707107 -0.000000
0.707107 -0.707107 0.000000
0.707107 0.707107 0.000000
-0.707107 -0.707107 -0.000000
-0.707107 0.000000 -0.707107
0.707107 0.000000 0.707107
-0.707107 0.000000 -0.707107
0.707107 -0.000000 0.707107
0.000000 0.707107 0.707107
-0.000000 -0.707107 -0.707107
-0.707107 0.000000 0.707107
0.707107 0.707107 0.000000
-0.000000 -0.707107 -0.707107
-0.000000 -0.707107 -0.707107
-0.000000 -0.707107 0.707107
0.000000 1.414214 0.000000
0.707107 0.707107 -0.000000
-0.707107 0.000000 -0.707107
-0.000000 -0.707107 0.707107
0.707107 -0.707107 0.000000
-0.707107 0.707107 -0.000000
0.707107 0.000000 0.707107
-0.707107 -0.000000 -0.707107
0.000000 0.707107 -0.707107
-0.000000 -0.707107 0.707107
-0.000000 -0.707107 0.707107
0.000000 0.707107 -0.707107
0.707107 0.707107 -0.000000
-0.707107 0.000000 0.707107
0.000000 -0.707107 -0.707107
0.000000 0.707107 0.707107
-0.000000 -0.707107 -0.707107
-0.707107 0.000000 0.707107
0.707107 -0.000000 -0.707107
0.000000 0.707107 -0.707107
0.000000 0.707107 -0.707107
-0.000000 -0.707107 0.707107
-0.707107 -0.000000 0.707107
-0.000000 0.707107 -0.707107
0.707107 -0.707107 0.000000
-0.707107 -0.000000 0.707107
0.707107 0.707107 0.000000
0.000000 -0.707107 -0.707107
0.000000 -0.707107 -0.707107
-0.707107 -0.707107 0.000000
0.707107 0.707107 -0.000000
0.707107 -0.707107 -0.000000
-0.707107 0.707107 -0.000000
0.000000 0.707107 0.707107
-0.000000 -0.707107 -0.707107
-0.707107 -0.707107 -0.000000
0.707107 -0.000000 -0.707107
-0.000000 0.707107 0.707107
-0.707107 -0.000000 0.707107
0.707107 0.000000 -0.707107
0.707107 0.000000 -0.707107
-0.707107 0.707107 -0.000000
0.000000 -0.707107 0.707107
0.000000 -0.707107 0.707107
-0.000000 0.707107 -0.707107
0.707107 0.000000 0.707107
-0.707107 0.707107 0.000000
-0.000000 -0.707107 -0.707107
-0.707107 -0.707107 0.000000
0.707107 -0.000000 0.707107
0.000000 0.707107 -0.707107
-0.000000 0.707107 -0.707107
0.000000 -0.707107 0.707107
0.000000 -0.707107 0.707107
-0.000000 0.707107 -0.707107
0.000000 -0.707107 0.707107
0.000000 -0.707107 0.707107
-0.000000 0.707107 -0.707107
-0.707107 -0.000000 -0.707107
0.707107 -0.000000 0.707107
0.000000 -0.707107 -0.707107
-0.000000 0.707107 0.707107
0.707107 -0.000000 0.707107
-0.707107 0.000000 -0.707107
-0.000000 0.707107 0.707107
0.000000 -0.707107 -0.707107
0.000000 0.707107 -0.707107
0.000000 -0.707107 0.707107
-0.707107 -0.707107 0.000000
0.707107 0.707107 -0.000000
-0.707107 0.000000 0.707107
0.707107 -0.000000 -0.707107
0.707107 -0.000000 -0.707107
-0.707107 0.707107 -0.000000
0.000000 -0.707107 0.707107
-0.707107 -0.707107 0.000000
0.707107 0.707107 -0.000000
-0.707107 -0.707107 0.000000
0.707107 0.707107 0.000000
-0.707107 0.000000 0.707107
0.707107 0.000000 -0.707107
0.000000 -0.707107 0.707107
-0.000000 0.707107 -0.707107
0.000000 0.707107 0.707107
-0.000000 -0.707107 -0.707107
0.707107 -0.707107 0.000000
-0.707107 0.707107 -0.000000
-0.707107 0.000000 0.707107
0.707107 -0.000000 -0.707107
0.000000 -0.707107 -0.707107
0.000000 0.707107 0.707107
0.707107 -0.000000 0.707107
-0.707107 0.707107 -0.000000
-0.000000 -0.707107 -0.707107
-0.707107 0.000000 0.707107
0.707107 -0.000000 -0.707107
0.707107 0.707107 0.000000
-0.707107 0.000000 -0.707107
0.000000 -0.707107 0.707107
0.707107 -0.000000 -0.707107
-0.707107 0.000000 0.707107
-0.000000 -0.707107 0.707107
0.707107 0.000000 -0.707107
-0.707107 0.707107 0.000000
0.707107 -0.000000 -0.707107
-0.707107 0.000000 0.707107
0.000000 -0.707107 -0.707107
-0.000000 0.707107 0.707107
0.000000 0.707107 -0.707107
-0.000000 -0.707107 0.707107
0.707107 -0.707107 0.000000
-0.000000 0.707107 -0.707107
-0.707107 0.000000 0.707107
0.707107 0.000000 0.707107
-0.707107 -0.707107 0.000000
0.000000 0.707107 -0.707107
-0.707107 -0.707107 0.000000
0.707107 0.707107 -0.000000
0.707107 0.707107 -0.000000
0.000000 0.707107 -0.707107
-0.000000 0.707107 0.707107
0.000000 -0.707107 -0.707107
-0.000000 -0.707107 0.707107
0.707107 0.707107 0.000000
-0.707107 -0.707107 -0.000000
0.707107 0.707107 -0.000000
-0.707107 -0.707107 0.000000
-0.000000 0.707107 0.707107
0.000000 -0.707107 -0.707107
0.000000 -0.707107 -0.707107
0.000000 0.000000 1.414214
-0.000000 -0.000000 -1.414214
0.000000 -0.707107 0.707107
-0.000000 0.707107 -0.707107
0.000000 -0.707107 -0.707107
-0.000000 0.707107 0.707107
-0.707107 -0.000000 -0.707107
0.707107 0.000000 0.707107
-0.707107 -0.707107 0.000000
0.707107 0.707107 -0.000000
0.000000 -0.707107 -0.707107
-0.000000 0.707107 0.707107
-0.707107 0.000000 -0.707107
0.707107 -0.000000 0.707107
0.000000 -0.707107 0.707107
-0.000000 0.707107 -0.707107
0.000000 0.707107 0.707107
-0.000000 -0.707107 -0.707107
0.707107 -0.707107 0.000000
-0.707107 0.707107 -0.000000
-0.707107 0.000000 0.707107
0.707107 0.707107 -0.000000
0.000000 -0.707107 -0.707107
0.000000 -0.707107 -0.707107
-0.707107 0.707107 -0.000000
0.707107 0.000000 0.707107
-0.707107 -0.000000 -0.707107
0.707107 0.000000 0.707107
0.000000 -0.707107 -0.707107
-0.000000 0.707107 0.707107
-0.707107 0.707107 0.000000
0.707107 -0.707107 0.000000
-0.707107 -0.000000 0.707107
0.707107 -0.000000 -0.707107
0.000000 0.707107 0.707107
-0.000000 -0.707107 -0.707107
-0.000000 -0.707107 0.707107
0.000000 0.707107 -0.707107
-0.707107 0.000000 0.707107
0.707107 0.000000 -0.707107
0.000000 -0.707107 -0.707107
-0.000000 0.707107 0.707107
-0.000000 0.707107 -0.707107
-0.707107 -0.707107 0.000000
0.707107 0.000000 0.707107
-0.000000 -0.707107 -0.707107
-0.000000 -0.707107 -0.707107
-0.000000 0.707107 0.707107
-0.000000 0.707107 0.707107
-0.000000 0.707107 0.707107
0.000000 -0.707107 -0.707107
0.707107 -0.707107 -0.000000
-0.707107 -0.000000 -0.707107
-0.000000 0.707107 0.707107
-0.707107 -0.000000 0.707107
0.707107 0.000000 -0.707107
0.707107 -0.707107 0.000000
-0.707107 0.707107 -0.000000
0.000000 0.707107 -0.707107
-0.000000 -0.707107 0.707107
0.000000 -0.707107 -0.707107
0.707107 0.707107 -0.000000
-0.707107 -0.000000 0.707107
-0.000000 0.707107 -0.707107
0.000000 -0.707107 0.707107
-0.707107 -0.000000 0.707107
0.707107 0.000000 -0.707107
-0.707107 -0.707107 -0.000000
0.707107 0.707107 0.000000
0.000000 -0.707107 -0.707107
-0.000000 0.707107 0.707107
-0.707107 -0.707107 -0.000000
0.707107 0.707107 0.000000
-0.707107 -0.707107 -0.000000
-0.000000 0.707107 0.707107
0.000000 -0.707107 -0.707107
-0.707107 -0.000000 -0.707107
0.707107 0.000000 0.707107
-0.707107 0.000000 0.707107
0.707107 -0.000000 -0.707107
-0.707107 0.000000 0.707107
0.707107 -0.707107 -0.000000
-0.000000 0.707107 -0.707107
-0.707107 0.000000 0.707107
0.707107 -0.000000 -0.707107
-0.707107 0.000000 -0.707107
0.000000 -0.707107 0.707107
0.707107 0.707107 -0.000000
0.707107 -0.707107 -0.000000
-0.707107 0.707107 0.000000
-0.707107 0.000000 -0.707107
0.707107 -0.000000 0.707107
0.000000 0.707107 -0.707107
-0.000000 -0.707107 0.707107
0.707107 -0.707107 -0.000000
-0.707107 0.707107 0.000000
-0.000000 -0.707107 -0.707107
0.000000 1.414214 0.000000
-0.000000 -0.707107 0.707107
0.000000 -0.707107 -0.707107
0.000000 0.707107 0.707107
0.707107 -0.000000 0.707107
-0.707107 0.000000 -0.707107
0.707107 0.000000 -0.707107
-0.707107 -0.000000 0.707107
0.000000 -0.707107 -0.707107
-0.000000 0.707107 0.707107
-0.707107 0.707107 0.000000
0.707107 -0.707107 -0.000000
-0.707107 -0.000000 0.707107
0.000000 0.707107 -0.707107
0.707107 -0.707107 0.000000
0.000000 -0.707107 -0.707107
-0.000000 0.707107 0.707107
-0.707107 -0.707107 0.000000
0.707107 0.707107 -0.000000
0.000000 0.707107 -0.707107
-0.000000 -0.707107 0.707107
0.000000 -0.707107 -0.707107
-0.000000 0.707107 0.707107
0.707107 0.707107 0.000000
-0.707107 -0.707107 -0.000000
0.707107 -0.000000 0.707107
-0.707107 0.000000 -0.707107
-0.707107 -0.000000 0.707107
0.707107 0.000000 -0.707107
-0.707107 0.707107 0.000000
0.707107 -0.707107 -0.000000
-0.707107 -0.707107 -0.000000
0.000000 0.707107 -0.707107
0.707107 0.000000 0.707107
-0.707107 0.707107 -0.000000
-0.000000 -0.707107 -0.707107
0.707107 -0.000000 0.707107
-0.000000 0.707107 0.707107
0.000000 -0.707107 -0.707107
0.000000 -0.707107 -0.707107
-0.000000 0.707107 0.707107
0.000000 0.000000 -1.414214
0.707107 0.000000 0.707107
-0.707107 0.000000 0.707107
-0.707107 -0.000000 -0.707107
0.707107 0.707107 -0.000000
-0.707107 -0.707107 -0.000000
0.707107 0.000000 0.707107
-0.707107 0.707107 0.000000
0.707107 0.000000 0.707107
-0.000000 -0.707107 -0.707107
-0.707107 0.707107 0.000000
0.707107 -0.707107 -0.000000
-0.707107 0.000000 0.707107
0.707107 -0.000000 -0.707107
0.707107 -0.000000 -0.707107
-0.707107 0.707107 -0.000000
-0.707107 0.707107 -0.000000
-0.000000 -0.707107 0.707107
-0.707107 0.000000 0.707107
0.707107 -0.000000 -0.707107
-0.000000 -0.707107 -0.707107
0.000000 0.707107 0.707107
0.000000 -0.707107 0.707107
-0.000000 0.707107 -0.707107
-0.707107 -0.000000 0.707107
0.707107 0.000000 -0.707107
0.707107 0.000000 0.707107
-0.707107 -0.000000 -0.707107
-0.707107 0.707107 0.000000
0.707107 -0.707107 -0.000000
0.000000 -0.707107 -0.707107
-0.000000 0.707107 0.707107
0.707107 -0.000000 0.707107
-0.707107 0.000000 -0.707107
0.707107 0.000000 0.707107
-0.707107 -0.000000 -0.707107
0.000000 0.707107 0.707107
0.000000 -0.707107 -0.707107
1.414214 0.000000 -0.000000
-0.707107 0.707107 -0.000000
-0.707107 -0.707107 0.000000
0.707107 0.000000 0.707107
0.000000 -0.707107 -0.707107
-0.707107 0.000000 0.707107
0.707107 0.707107 0.000000
0.000000 0.707107 -0.707107
0.000000 -0.707107 0.707107
-0.000000 0.707107 0.707107
-0.707107 -0.000000 -0.707107
0.707107 -0.707107 -0.000000
-0.707107 0.000000 -0.707107
0.707107 -0.000000 0.707107
-0.000000 0.707107 -0.707107
0.000000 -0.707107 0.707107
-0.707107 0.000000 -0.707107
0.707107 -0.000000 0.707107
-0.707107 -0.707107 0.000000
0.707107 0.707107 -0.000000
-0.707107 0.707107 0.000000
0.707107 0.000000 0.707107
-0.000000 -0.707107 -0.707107
-0.707107 -0.000000 0.707107
0.707107 0.000000 -0.707107
0.707107 -0.707107 -0.000000
-0.707107 0.707107 0.000000
0.000000 -0.707107 -0.707107
-0.000000 0.707107 0.707107
0.707107 0.707107 -0.000000
-0.707107 -0.707107 -0.000000
-0.000000 0.707107 0.707107
-0.000000 -0.707107 -0.707107
0.707107 0.707107 -0.000000
-0.707107 -0.000000 0.707107
-0.000000 -0.707107 -0.707107
0.707107 0.000000 -0.707107
-0.707107 -0.000000 0.707107
0.000000 -0.707107 0.707107
0.000000 0.707107 -0.707107
0.707107 0.707107 0.000000
-0.707107 -0.707107 -0.000000
0.000000 0.707107 0.707107
0.000000 -0.707107 -0.707107
0.000000 0.707107 -0.707107
-0.000000 -0.707107 0.707107
0.707107 0.000000 -0.707107
-0.707107 0.000000 0.707107
0.707107 0.000000 0.707107
-0.707107 -0.000000 -0.707107
-0.707107 -1.414214 0.707107
0.707107 0.707107 0.000000
-0.000000 0.707107 -0.707107
0.000000 -0.707107 0.707107
0.000000 0.707107 -0.707107
0.707107 0.707107 0.000000
-0.707107 -0.707107 -0.000000
-0.707107 -0.707107 -0.000000
0.707107 0.000000 -0.707107
-0.707107 -0.000000 0.707107
0.707107 -0.707107 -0.000000
-0.707107 0.707107 -0.000000
-0.000000 -0.707107 0.707107
-0.000000 0.707107 -0.707107
-0.000000 0.707107 0.707107
0.000000 -0.707107 -0.707107
0.000000 0.707107 0.707107
0.000000 1.414214 0.000000
-0.000000 -2.121320 -0.707107
0.000000 0.707107 0.707107
-0.000000 -0.707107 -0.707107
-0.000000 0.707107 0.707107
0.707107 0.000000 -0.707107
-0.707107 -0.707107 -0.000000
0.000000 0.707107 -0.707107
-0.000000 -0.707107 0.707107
-0.707107 -0.000000 0.707107
-0.000000 0.707107 -0.707107
0.707107 -0.707107 0.000000
0.000000 -0.707107 -0.707107
-0.000000 0.707107 0.707107
0.707107 0.707107 0.000000
-0.707107 -0.000000 -0.707107
0.000000 -0.707107 0.707107
-0.707107 -0.707107 -0.000000
0.707107 0.707107 -0.000000
0.707107 0.000000 0.707107
-0.707107 0.000000 -0.707107
-0.000000 0.707107 -0.707107
0.000000 -0.707107 0.707107
-0.707107 -0.707107 -0.000000
0.707107 0.707107 -0.000000
-0.707107 0.707107 0.000000
0.707107 -0.707107 -0.000000
-0.707107 0.000000 -0.707107
0.707107 -0.000000 0.707107
0.707107 0.707107 0.000000
-0.707107 -0.707107 -0.000000
0.000000 -0.707107 -0.707107
0.000000 0.707107 0.707107
-0.707107 0.000000 0.707107
0.707107 0.707107 0.000000
-0.000000 -0.707107 -0.707107
0.707107 -0.707107 0.000000
-0.707107 0.707107 -0.000000
0.000000 0.707107 0.707107
-0.707107 -0.707107 0.000000
0.707107 0.000000 -0.707107
0.707107 0.707107 -0.000000
-0.707107 -0.707107 -0.000000
0.000000 -0.707107 -0.707107
-0.000000 0.707107 0.707107
-0.000000 0.707107 0.707107
-0.000000 -0.707107 -0.707107
-0.707107 0.000000 0.707107
0.707107 -0.000000 -0.707107
-0.707107 -0.707107 0.000000
0.707107 0.707107 -0.000000
0.000000 -0.707107 0.707107
-0.000000 0.707107 -0.707107
-0.707107 0.707107 0.000000
0.707107 -0.707107 -0.000000
-0.707107 0.000000 -0.707107
0.707107 -0.000000 0.707107
0.000000 0.707107 -0.707107
-0.000000 -0.707107 0.707107
-0.000000 -0.707107 0.707107
0.707107 0.000000 -0.707107
0.707107 0.000000 -0.707107
-0.707107 0.707107 0.000000
-0.707107 0.707107 0.000000
0.000000 -0.707107 0.707107
-0.000000 0.707107 -0.707107
-0.000000 -0.707107 -0.707107
0.707107 0.707107 -0.000000
-0.707107 -0.000000 0.707107
0.000000 0.707107 0.707107
0.000000 0.707107 -0.707107
-0.707107 -0.707107 -0.000000
0.707107 0.707107 0.000000
-0.000000 -0.707107 -0.707107
0.000000 0.707107 0.707107
0.707107 -0.000000 0.707107
-0.707107 0.000000 -0.707107
0.707107 0.000000 -0.707107
-0.707107 -0.000000 0.707107
0.707107 -0.707107 0.000000
-0.707107 0.707107 -0.000000
0.707107 -0.707107 -0.000000
-0.707107 0.000000 -0.707107
-0.000000 0.707107 0.707107
-0.707107 -0.707107 -0.000000
-0.707107 -0.707107 -0.000000
0.707107 0.000000 0.707107
-0.000000 0.707107 -0.707107
0.707107 0.707107 -0.000000
-0.707107 -0.707107 -0.000000
-0.000000 -0.707107 -0.707107
-0.000000 0.707107 0.707107
-0.707107 0.000000 -0.707107
0.707107 -0.000000 0.707107
-0.000000 -0.707107 0.707107
0.000000 0.707107 -0.707107
0.707107 0.000000 -0.707107
0.000000 -0.707107 0.707107
-0.707107 0.707107 0.000000
0.707107 0.707107 0.000000
-0.707107 -0.707107 -0.000000
0.000000 0.707107 -0.707107
0.707107 -0.707107 0.000000
-0.707107 -0.000000 0.707107
-0.707107 -0.707107 -0.000000
0.707107 0.707107 -0.000000
-0.707107 -0.000000 0.707107
0.707107 0.707107 -0.000000
0.000000 -0.707107 -0.707107
-0.707107 0.000000 0.707107
0.707107 -0.000000 -0.707107
-0.000000 0.707107 -0.707107
-0.000000 -0.000000 1.414214
0.000000 -0.707107 -0.707107
-0.000000 0.707107 -0.707107
-0.707107 -0.707107 0.000000
0.707107 -0.000000 0.707107
-0.707107 -0.000000 -0.707107
0.707107 -0.000000 0.707107
0.000000 -0.707107 -0.707107
-0.000000 0.707107 0.707107
-0.000000 -0.707107 0.707107
0.000000 0.707107 -0.707107
-0.707107 -0.000000 0.707107
0.707107 0.000000 -0.707107
-0.707107 -0.000000 0.707107
0.707107 0.000000 -0.707107
-0.707107 0.707107 -0.000000
0.000000 -0.707107 0.707107
0.707107 -0.000000 -0.707107
0.707107 0.707107 0.000000
-0.707107 -0.707107 -0.000000
-0.707107 -0.000000 -0.707107
0.707107 -0.000000 0.707107
0.707107 0.000000 -0.707107
-0.707107 0.000000 0.707107
0.000000 -0.707107 0.707107
0.707107 0.707107 -0.000000
-0.707107 0.000000 -0.707107
-0.000000 0.707107 0.707107
-0.707107 -0.707107 0.000000
0.707107 0.000000 -0.707107
0.707107 0.707107 0.000000
0.707107 -0.707107 0.000000
-0.707107 0.707107 0.000000
-0.707107 -0.707107 0.000000
-0.000000 0.707107 0.707107
0.000000 -0.707107 -0.707107
0.000000 -0.707107 -0.707107
-0.000000 0.707107 0.707107
-0.000000 0.707107 0.707107
0.000000 -0.707107 -0.707107
-0.000000 0.707107 0.707107
0.000000 -0.707107 -0.707107
0.000000 -0.707107 -0.707107
-0.000000 -0.707107 0.707107
0.000000 0.707107 0.707107
-0.000000 -0.707107 -0.707107
0.000000 0.707107 -0.707107
-0.000000 0.707107 -0.707107
0.707107 -0.707107 -0.000000
-0.707107 0.000000 0.707107
-0.707107 -0.000000 -0.707107
0.707107 0.000000 0.707107
0.000000 -0.707107 -0.707107
-0.000000 0.707107 0.707107
0.000000 0.707107 0.707107
-0.707107 0.000000 -0.707107
0.707107 -0.707107 0.000000
0.707107 -0.000000 -0.707107
0.000000 -0.707107 0.707107
-0.707107 0.707107 0.000000
0.707107 -0.707107 -0.000000
0.000000 0.707107 -0.707107
-0.000000 -0.707107 0.707107
-0.707107 0.000000 0.707107
0.707107 -0.000000 -0.707107
-0.707107 0.000000 0.707107
0.707107 -0.000000 -0.707107
0.000000 -0.707107 -0.707107
0.000000 -0.707107 -0.707107
-0.000000 0.707107 0.707107
0.000000 -0.707107 -0.707107
-0.000000 0.707107 0.707107
-0.000000 0.707107 0.707107
0.707107 -0.707107 0.000000
-0.707107 -0.000000 -0.707107
-0.000000 0.707107 0.707107
0.707107 -0.707107 0.000000
-0.707107 -0.000000 -0.707107
0.707107 0.000000 0.707107
0.000000 -0.000000 1.414214
0.707107 -0.000000 -0.707107
-0.707107 0.000000 -0.707107
0.707107 0.000000 0.707107
-0.707107 0.000000 -0.707107
-0.707107 0.707107 -0.000000
0.707107 -0.707107 -0.000000
0.000000 -0.707107 0.707107
0.707107 0.707107 0.000000