# vtk DataFile Version 3.0
Configuration exported from OpenDiS
ASCII
DATASET UNSTRUCTURED_GRID
POINTS 52336 FLOAT
-29412.000000 -29412.000000 -29412.000000
29412.000000 -29412.000000 -29412.000000
-29412.000000 29412.000000 -29412.000000
-29412.000000 -29412.000000 29412.000000
29412.000000 29412.000000 -29412.000000
29412.000000 -29412.000000 29412.000000
-29412.000000 29412.000000 29412.000000
29412.000000 29412.000000 29412.000000
21003.944812 2842.233016 4605.808833
20996.610711 2851.252983 4589.454765
21003.944812 2842.233016 4605.808833
20728.436131 3257.181285 5296.265783
-9891.706914 -2370.281443 26248.105466
-10581.883824 -1680.104534 26248.105466
-9891.706914 -2370.281443 26248.105466
-10175.925371 -2572.381844 26330.223523
-6038.269268 -24641.888164 7498.242117
-6992.801984 -24683.395827 6585.217064
-6038.269268 -24641.888164 7498.242117
-5695.986102 -24582.794338 7781.431457
9576.229316 -25154.632711 28323.483056
9246.864220 -25154.632711 28673.372076
9576.229316 -25154.632711 28323.483056
9838.396230 -25154.632711 28040.114929
-21846.155458 -314.368499 9550.034264
-22153.715784 -772.412084 8784.442089
-21846.155458 -314.368499 9550.034264
-20760.730601 -1399.990991 9550.231900
-21846.155458 -314.368499 9550.034264
-21707.874673 126.454197 8970.930784
-15037.159282 -13264.365530 -20269.824361
-14502.241333 -12204.044229 -20795.227714
-15037.159282 -13264.365530 -20269.824361
-15401.111148 -14249.281800 -19648.859957
-15322.657553 -7307.757988 -28877.954489
-16374.676574 -7711.928260 -28230.105741
-15322.657553 -7307.757988 -28877.954489
-14859.812804 -7168.193157 -29201.234407
-22613.482573 23061.291854 -25377.256809
-23104.566599 23226.215086 -25051.098369
-22613.482573 23061.291854 -25377.256809
-21558.458618 22682.943687 -26053.924351
-6996.750787 -22717.676105 -21745.988785
-6242.425815 -22100.283117 -21882.920768
-6996.750787 -22717.676105 -21745.988785
-7866.681757 -23734.877290 -21893.259000
-24282.509772 -22369.249221 23844.406497
-24261.682081 -22766.608871 24262.593839
-24282.509772 -22369.249221 23844.406497
-24849.056932 -22935.796381 23844.406497
-24282.509772 -22369.249221 23844.406497
-23916.232987 -22002.972435 23844.406497
-23608.614599 747.283228 -17421.975319
-23608.615288 1387.617567 -18062.306228
-23608.614599 747.283228 -17421.975319
-23608.613903 18.203717 -16701.880384
8488.447418 -20028.312824 -13070.848374
8083.465638 -20637.258888 -14084.776218
8488.447418 -20028.312824 -13070.848374
8791.971254 -19185.939291 -11924.951006
16775.240555 535.571341 2678.077277
16081.938748 1314.303485 2592.646939
16775.240555 535.571341 2678.077277
16360.708445 694.670930 2104.445577
16775.240555 535.571341 2678.077277
17398.008306 79.843365 3759.417492
-7768.556575 12095.325750 -16993.430247
-7982.558592 12172.388283 -17284.494796
-7768.556575 12095.325750 -16993.430247
-7472.846835 11990.608854 -16593.003609
-12414.466176 312.520638 20910.928992
-11805.583097 -956.525175 21571.091727
-12414.466176 312.520638 20910.928992
-12575.427188 655.114670 20729.295973
-19052.557723 23205.076623 -13899.796146
-19991.814259 22422.164585 -14056.140694
-19052.557723 23205.076623 -13899.796146
-18778.053077 24025.553882 -12804.814241
-10870.903379 -21639.894311 -23693.554210
-10582.776110 -21209.620663 -23551.407831
-10870.903379 -21639.894311 -23693.554210
-11208.616441 -22036.075722 -23752.022558
9245.195265 -22536.001852 1156.424369
9191.809331 -22966.886375 672.153912
9245.195265 -22536.001852 1156.424369
9260.708441 -22140.404186 1567.535211
304.636853 -10150.013221 27280.733059
-803.429647 -10429.179015 26451.832353
304.636853 -10150.013221 27280.733059
868.705782 -9885.827326 27580.616092
-25635.595030 -17677.402296 28758.456526
-24983.547360 -17677.402296 28067.364187
-25635.595030 -17677.402296 28758.456526
-25967.827109 -17677.402296 29030.325096
-14960.412353 15839.506154 -22492.857881
-15253.934804 16346.388874 -22279.497612
-14960.412353 15839.506154 -22492.857881
-15477.209527 14936.571726 -22878.995135
-25793.701180 -27909.322456 24258.809030
-25899.969879 -28070.635840 24203.764346
-25793.701180 -27909.322456 24258.809030
-24449.254101 -28638.663819 23643.703314
-25793.701180 -27909.322456 24258.809030
-26043.365069 -27909.322456 24508.472920
-22232.772994 -1788.625244 -14826.454116
-21363.547578 -1788.625244 -15695.679532
-22232.772994 -1788.625244 -14826.454116
-22682.079508 -1839.442156 -14326.330690
-22232.772994 -1788.625244 -14826.454116
-22991.122988 -1468.406914 -15266.813550
3307.639489 4196.874485 22820.380942
3027.127579 4506.656915 23410.675281
3307.639489 4196.874485 22820.380942
3525.565518 3802.440362 22208.021002
-15693.271526 11158.105171 13344.149811
-16920.724660 11812.638520 13917.069595
-15693.271526 11158.105171 13344.149811
-15154.320347 10836.190771 13127.113031
-3465.289754 -22978.632544 26447.259195
-3846.138605 -22870.269875 25958.049126
-3465.289754 -22978.632544 26447.259195
-2782.621459 -22939.465236 25803.758208
-3465.289754 -22978.632544 26447.259195
-2960.032721 -23311.698018 27285.580976
-3465.289754 -22978.632544 26447.259195
-4556.134499 -22746.724088 27770.012396
9376.296246 19500.872134 -11626.349901
9967.790061 19368.753826 -12085.725408
9376.296246 19500.872134 -11626.349901
8427.716798 19747.914234 -10924.812553
-20091.646513 -4407.972979 -24895.830687
-20767.693809 -3990.341788 -25154.246792
-20091.646513 -4407.972979 -24895.830687
-20269.430796 -5232.200138 -24249.387812
-20091.646513 -4407.972979 -24895.830687
-19764.668922 -3120.847261 -25855.978815
-20091.646513 -4407.972979 -24895.830687
-19588.887473 -4660.783701 -24645.882369
8459.827225 -12138.811841 -25765.906145
7447.838434 -11854.202188 -25038.527007
8459.827225 -12138.811841 -25765.906145
9531.415793 -12247.313747 -26728.992807
13176.004469 23103.354104 14807.784370
12975.444234 22960.230529 15171.886659
13176.004469 23103.354104 14807.784370
13480.915487 23570.432964 13952.140317
-14982.769516 25689.822549 -24976.131757
-14131.118427 25731.098202 -25786.507194
-14982.769516 25689.822549 -24976.131757
-15776.030767 25580.782592 -24291.910465
16056.277903 -15374.715691 -18578.147820
16903.064846 -16225.900229 -18578.147820
16056.277903 -15374.715691 -18578.147820
15606.837117 -16497.679708 -19251.671052
-1510.699378 -29087.823772 22235.774851
-1544.870416 -29412.000003 21877.427583
-1544.870416 29411.999985 21877.427583
-1579.945962 29079.242805 21509.594844
-1510.699378 -29087.823772 22235.774851
-1608.675167 -28177.943717 23047.724047
13441.144321 -6053.114648 -636.562898
14423.158629 -5648.119152 -1213.581782
13441.144321 -6053.114648 -636.562898
12723.341006 -6323.194312 -188.839184
28262.415415 20015.897547 -24819.815272
27269.874746 20068.468785 -25864.927179
28262.415415 20015.897547 -24819.815272
29161.390842 20260.605665 -24165.547963
5328.844830 -9007.289251 -25766.105165
5633.852129 -9978.598309 -25099.973993
5328.844830 -9007.289251 -25766.105165
5280.911125 -8243.629299 -26481.490236
-17059.931635 -22111.358626 -11876.149174
-16395.981760 -22111.358626 -12540.087444
-17059.931635 -22111.358626 -11876.149174
-17765.251854 -22111.370213 -11166.098938
-27455.859931 24092.114545 -14100.529961
-28317.347245 24078.689723 -13252.463251
-27455.859931 24092.114545 -14100.529961
-26575.471568 23957.573270 -15115.463297
-22433.695949 -7212.026240 -12633.504285
-22343.769569 -7620.712784 -13132.119472
-22433.695949 -7212.026240 -12633.504285
-22543.623691 -6499.128037 -11810.678340
-6780.633194 -9452.313403 19219.108824
-7153.393054 -8509.148124 19789.514243
-6780.633194 -9452.313403 19219.108824
-6515.002171 -10312.446429 18624.606821
-29268.230963 -26856.287471 26679.627674
-29042.976043 -27358.563542 26958.001135
-29268.230963 -26856.287471 26679.627674
-29412.000001 -26779.077797 26746.187037
29411.999987 -26779.077797 26746.187037
28889.488291 -26498.468291 26988.089240
-29268.230963 -26856.287471 26679.627674
-28901.364480 -26499.137763 25955.611483
377.019820 -68.187484 -5282.752597
377.098652 -67.994375 -5282.638320
377.019820 -68.187484 -5282.752597
174.295633 -514.930508 -5932.219809
377.019820 -68.187484 -5282.752597
552.486440 346.858500 -5522.491321
-28445.917979 22815.098610 -11475.524432
-28817.529440 23028.786662 -11633.580128
-28445.917979 22815.098610 -11475.524432
-27853.023532 22942.371060 -10755.318800
-21172.559035 17099.351242 17847.882242
-21179.285204 17086.337331 17784.066423
-21172.559035 17099.351242 17847.882242
-21479.713569 17206.621219 18262.306753
-4438.356308 -3422.337748 27390.448868
-4086.929201 -3591.960211 26869.399297
-4438.356308 -3422.337748 27390.448868
-4538.812581 -3199.141331 27714.101558
-55.061343 -20233.576160 18233.619426
-55.061343 -20834.972953 17624.999625
-55.061343 -20233.576160 18233.619426
-55.061343 -19785.023310 18682.258515
11961.083371 5608.933569 15941.209413
12248.505176 5315.778348 15935.475997
11961.083371 5608.933569 15941.209413
11789.133168 5972.542590 16132.868231
-370.662201 -7150.549007 24189.324881
-834.290927 -6389.308139 24486.937023
-370.662201 -7150.549007 24189.324881
410.325308 -7110.070079 23448.816299
110.355756 20989.876601 -7409.113862
93.483148 20101.857111 -6504.249823
110.355756 20989.876601 -7409.113862
229.396896 21705.741378 -8244.019779
-4693.437458 9786.446593 27628.896813
-4363.695661 9367.174027 27539.366043
-4693.437458 9786.446593 27628.896813
-5134.696544 10344.506423 27745.697556
-12379.787230 10535.690635 -13881.914695
-12896.952622 9747.836766 -13611.226218
-12379.787230 10535.690635 -13881.914695
-11813.121414 11347.300247 -14126.858489
-25529.137780 -12856.795666 -25413.921999
-25900.948456 -12856.795666 -25042.100272
-25529.137780 -12856.795666 -25413.921999
-25616.340342 -12225.699059 -25957.816045
-25529.137780 -12856.795666 -25413.921999
-24833.028920 -12569.668223 -25820.733320
995.879819 26292.261930 9740.930036
1524.742279 26808.475958 10786.006524
995.879819 26292.261930 9740.930036
553.211310 26075.608784 9081.608381
-1010.109900 7221.811401 23168.760046
[...]
CELL_DATA 26165
VECTORS Burgers FLOAT
0.000000 0.000000 0.000000
0.707107 0.707107 0.000000
-0.707107 -0.707107 0.000000
-0.707107 -0.707107 -0.000000
0.707107 0.707107 0.000000
0.707107 0.707107 0.000000
-0.707107 -0.707107 -0.000000
0.707107 0.000000 0.707107
-0.707107 -0.000000 -0.707107
-0.000000 -0.707107 -0.707107
0.707107 0.707107 -0.000000
-0.707107 0.000000 0.707107
0.000000 -0.707107 0.707107
-0.000000 0.707107 -0.707107
0.707107 0.000000 -0.707107
-0.707107 -0.000000 0.707107
0.707107 -0.707107 0.000000
-0.707107 0.707107 -0.000000
0.000000 0.707107 0.707107
-0.000000 -0.707107 -0.707107
-0.000000 0.707107 -0.707107
-0.707107 -0.707107 0.000000
0.707107 0.000000 0.707107
-0.000000 0.707107 0.707107
0.000000 -0.707107 -0.707107
0.707107 -0.000000 0.707107
-0.707107 0.000000 -0.707107
0.000000 -0.707107 0.707107
-0.707107 0.000000 -0.707107
0.707107 0.707107 -0.000000
0.707107 0.000000 0.707107
-0.707107 -0.000000 -0.707107
0.707107 -0.707107 0.000000
-0.707107 0.707107 -0.000000
-0.707107 -0.000000 -0.707107
0.707107 0.000000 0.707107
0.707107 0.000000 -0.707107
-0.707107 -0.000000 0.707107
-0.707107 0.707107 0.000000
0.707107 -0.707107 -0.000000
0.000000 0.707107 -0.707107
-0.000000 -0.707107 0.707107
0.707107 0.000000 0.707107
-0.707107 -0.000000 -0.707107
-0.000000 -0.707107 -0.707107
0.000000 0.707107 0.707107
-0.707107 -0.707107 0.000000
0.000000 0.707107 -0.707107
0.707107 -0.000000 0.707107
-0.707107 -0.000000 -0.707107
0.707107 -0.707107 0.000000
-0.000000 0.707107 0.707107
0.707107 0.000000 -0.707107
-0.707107 -0.000000 0.707107
0.707107 -0.707107 0.000000
-0.707107 0.707107 -0.000000
0.707107 0.000000 0.707107
-0.707107 0.000000 0.707107
-0.707107 -0.000000 -0.707107
0.707107 -0.000000 -0.707107
-0.707107 0.707107 -0.000000
0.707107 -0.707107 0.000000
0.707107 0.000000 0.707107
-0.000000 0.707107 -0.707107
0.000000 -0.707107 0.707107
-0.707107 0.000000 -0.707107
0.000000 -0.707107 0.707107
-0.000000 0.707107 -0.707107
-0.707107 0.707107 0.000000
0.707107 -0.707107 -0.000000
-0.707107 -0.000000 0.707107
0.707107 0.000000 -0.707107
0.707107 0.707107 0.000000
-0.707107 -0.707107 0.000000
0.000000 0.707107 0.707107
0.000000 0.707107 0.707107
-0.000000 -0.707107 -0.707107
-0.707107 0.000000 0.707107
0.707107 -0.000000 -0.707107
0.000000 -0.707107 0.707107
-0.000000 0.707107 -0.707107
0.707107 0.000000 -0.707107
-0.707107 -0.000000 0.707107
-0.707107 0.000000 -0.707107
0.707107 -0.000000 0.707107
0.707107 0.707107 0.000000
-0.707107 -0.707107 -0.000000
-0.707107 -0.707107 0.000000
0.707107 0.707107 -0.000000
0.000000 -0.707107 -0.707107
-0.000000 0.707107 0.707107
0.000000 0.707107 -0.707107
0.707107 -0.707107 0.000000
0.707107 -0.707107 0.000000
-0.707107 -0.000000 0.707107
-0.707107 -1.414214 -0.707107
-0.000000 0.707107 0.707107
0.707107 0.707107 -0.000000
-0.000000 -0.707107 -0.707107
0.000000 0.707107 0.707107
-0.707107 0.000000 0.707107
0.707107 -0.000000 -0.707107
-0.707107 -0.707107 0.000000
0.707107 0.707107 -0.000000
-0.000000 -0.707107 0.707107
0.000000 0.707107 -0.707107
0.707107 0.000000 0.707107
-0.707107 -0.000000 -0.707107
0.000000 0.707107 0.707107
-0.000000 -0.707107 -0.707107
0.000000 0.707107 -0.707107
-0.000000 -0.707107 0.707107
-0.707107 0.707107 -0.000000
0.707107 -0.707107 0.000000
0.707107 0.707107 0.000000
-0.707107 -0.707107 -0.000000
-0.000000 -0.707107 -0.707107
-0.707107 -0.000000 0.707107
0.707107 0.707107 0.000000
-0.707107 0.000000 -0.707107
0.707107 -0.000000 0.707107
0.707107 -0.707107 0.000000
-0.707107 0.707107 -0.000000
-0.707107 0.000000 0.707107
-0.000000 -0.707107 -0.707107
0.707107 0.707107 0.000000
-0.000000 -0.707107 -0.707107
-0.000000 -0.707107 0.707107
0.000000 1.414214 0.000000
0.707107 0.707107 -0.000000
-0.000000 -0.707107 0.707107
-0.707107 0.000000 -0.707107
-0.707107 0.707107 -0.000000
0.707107 -0.707107 -0.000000
0.707107 0.000000 0.707107
-0.707107 -0.000000 -0.707107
-0.000000 0.707107 -0.707107
0.000000 -0.707107 0.707107
-0.000000 -0.707107 0.707107
0.000000 0.707107 -0.707107
0.707107 -0.707107 -0.000000
-0.707107 0.707107 -0.000000
0.000000 -0.000000 -1.414214
-0.000000 -0.000000 1.414214
-0.000000 0.707107 0.707107
0.707107 -0.707107 0.000000
-0.707107 0.000000 -0.707107
0.000000 0.707107 -0.707107
0.000000 0.707107 -0.707107
-0.000000 -0.707107 0.707107
-0.707107 -0.000000 0.707107
0.707107 -0.707107 0.000000
-0.000000 0.707107 -0.707107
0.000000 -0.707107 -0.707107
-0.000000 0.707107 0.707107
-0.707107 -0.707107 0.000000
0.707107 0.707107 -0.000000
0.707107 -0.707107 -0.000000
-0.707107 0.707107 -0.000000
0.000000 0.707107 0.707107
-0.000000 -0.707107 -0.707107
0.707107 -0.000000 -0.707107
-0.000000 0.707107 0.707107
-0.707107 0.707107 -0.000000
0.000000 -1.414214 -0.000000
0.707107 -0.000000 0.707107
-0.000000 0.000000 -1.414214
-0.707107 0.000000 0.707107
-0.000000 0.707107 -0.707107
0.000000 -0.707107 0.707107
0.000000 -0.707107 0.707107
-0.000000 0.707107 -0.707107
0.707107 0.000000 0.707107
-0.000000 -0.707107 -0.707107
-0.707107 0.707107 0.000000
-0.707107 -0.707107 0.000000
0.707107 -0.000000 0.707107
0.000000 0.707107 -0.707107
-0.000000 0.707107 -0.707107
0.000000 -0.707107 0.707107
-0.707107 -0.707107 0.000000
0.707107 0.707107 -0.000000
-0.000000 -0.707107 0.707107
0.000000 0.707107 -0.707107
0.000000 -0.707107 0.707107
0.000000 -0.707107 0.707107
-0.000000 0.707107 -0.707107
-0.707107 -0.000000 -0.707107
0.707107 -0.000000 0.707107
0.000000 -0.707107 -0.707107
-0.000000 0.707107 0.707107
0.707107 -0.000000 0.707107
-0.707107 0.000000 -0.707107
-0.000000 0.707107 0.707107
0.000000 -0.707107 -0.707107
0.000000 0.707107 -0.707107
0.000000 -0.707107 0.707107
-0.707107 -0.707107 0.000000
0.707107 0.707107 -0.000000
-0.707107 0.000000 0.707107
0.707107 -0.000000 -0.707107
0.707107 -0.000000 -0.707107
-0.707107 0.707107 -0.000000
0.000000 -0.707107 0.707107
-0.000000 0.707107 0.707107
-0.000000 -0.707107 -0.707107
-0.707107 -0.707107 0.000000
0.707107 0.707107 0.000000
-0.707107 0.000000 0.707107
0.707107 0.000000 -0.707107
0.000000 -0.707107 0.707107
-0.000000 0.707107 -0.707107
0.000000 0.707107 0.707107
-0.000000 -0.707107 -0.707107
0.000000 -0.707107 -0.707107
0.000000 -0.707107 -0.707107
-0.000000 0.707107 0.707107
-0.707107 0.000000 0.707107
0.707107 -0.000000 -0.707107
0.707107 -0.707107 0.000000
-0.707107 0.707107 -0.000000
-0.707107 0.000000 -0.707107
0.707107 -0.000000 0.707107
-0.707107 0.000000 0.707107
0.707107 -0.000000 -0.707107
0.000000 -0.707107 -0.707107
-0.000000 0.707107 0.707107
0.707107 -0.000000 -0.707107
-0.707107 0.000000 0.707107
-0.000000 -0.707107 0.707107
0.707107 0.000000 -0.707107
-0.707107 0.707107 0.000000
0.707107 -0.000000 -0.707107
-0.707107 0.000000 0.707107
-0.000000 0.707107 -0.707107
0.000000 -0.707107 0.707107
-0.707107 -0.000000 0.707107
0.707107 0.000000 -0.707107
0.707107 0.000000 0.707107
-0.707107 -0.707107 0.000000
0.000000 0.707107 -0.707107
-0.707107 -0.707107 0.000000
0.707107 0.707107 -0.000000
0.707107 0.707107 -0.000000
0.000000 0.707107 -0.707107
-0.000000 0.707107 0.707107
0.000000 -0.707107 -0.707107
-0.000000 -0.707107 0.707107
0.707107 0.707107 0.000000
-0.707107 -0.707107 -0.000000
0.707107 0.707107 -0.000000
-0.707107 -0.707107 0.000000
-0.000000 0.707107 0.707107
-0.000000 0.707107 0.707107
0.000000 -0.707107 -0.707107
0.000000 0.000000 1.414214
-0.000000 -0.000000 -1.414214
-0.707107 -0.707107 0.000000
0.707107 0.707107 -0.000000
-0.707107 0.707107 0.000000
0.707107 -0.707107 -0.000000
0.707107 0.000000 -0.707107
-0.707107 -0.000000 0.707107
0.000000 -0.707107 -0.707107
-0.707107 0.000000 0.707107
0.707107 0.707107 -0.000000
0.000000 -0.707107 -0.707107
-0.000000 0.707107 0.707107
0.000000 -0.707107 0.707107
-0.000000 0.707107 -0.707107
0.000000 -0.707107 0.707107
-0.000000 0.707107 -0.707107
0.000000 0.707107 0.707107
-0.000000 -0.707107 -0.707107
0.707107 -0.707107 0.000000
-0.707107 0.707107 -0.000000
-0.707107 0.000000 0.707107
0.707107 0.707107 -0.000000
0.000000 -0.707107 -0.707107
0.000000 -0.707107 -0.707107
-0.707107 0.707107 -0.000000
0.707107 0.000000 0.707107
-0.707107 -0.000000 -0.707107
0.707107 0.000000 0.707107
0.000000 -0.707107 -0.707107
-0.000000 0.707107 0.707107
-0.707107 0.707107 0.000000
0.707107 -0.707107 0.000000
-0.707107 -0.000000 0.707107
0.707107 -0.000000 -0.707107
0.000000 0.707107 0.707107
-0.000000 -0.707107 -0.707107
0.707107 -0.707107 -0.000000
-0.707107 0.707107 0.000000
-0.707107 0.000000 0.707107
0.707107 0.000000 -0.707107
0.000000 -0.707107 0.707107
0.000000 -0.707107 0.707107
-0.707107 0.000000 -0.707107
0.707107 0.707107 -0.000000
-0.000000 0.707107 -0.707107
-0.707107 -0.707107 0.000000
0.707107 0.000000 0.707107
-0.000000 -0.707107 -0.707107
-0.000000 -0.707107 -0.707107
-0.000000 0.707107 0.707107
-0.000000 0.707107 0.707107
-0.707107 0.707107 -0.000000
0.707107 -0.707107 0.000000
0.707107 -0.707107 -0.000000
-0.707107 0.707107 -0.000000
-0.000000 0.707107 -0.707107
0.000000 -0.707107 0.707107
-0.000000 0.707107 0.707107
0.000000 -0.707107 -0.707107
0.000000 0.707107 -0.707107
-0.000000 -0.707107 0.707107
0.000000 -0.707107 -0.707107
0.707107 0.707107 -0.000000
-0.707107 -0.000000 0.707107
0.000000 -0.707107 -0.707107
-0.000000 0.707107 0.707107
0.707107 0.707107 -0.000000
-0.707107 -0.707107 -0.000000
0.000000 0.707107 -0.707107
-0.000000 -0.707107 0.707107
0.000000 -0.707107 -0.707107
-0.000000 0.707107 0.707107
-0.707107 -0.707107 -0.000000
0.707107 0.707107 0.000000
-0.707107 -0.707107 -0.000000
-0.000000 0.707107 0.707107
0.000000 -0.707107 -0.707107
-0.707107 -0.000000 -0.707107
0.707107 0.000000 0.707107
-0.707107 0.000000 0.707107
0.707107 -0.000000 -0.707107
0.707107 -0.707107 -0.000000
-0.000000 0.707107 -0.707107
-0.707107 0.000000 0.707107
-0.000000 -0.707107 0.707107
0.000000 0.707107 -0.707107
0.000000 0.707107 0.707107
-0.000000 -0.707107 -0.707107
0.000000 -0.707107 0.707107
0.707107 0.707107 -0.000000
-0.707107 0.000000 -0.707107
0.707107 0.000000 -0.707107
-0.707107 -0.000000 0.707107
0.707107 0.000000 0.707107
-0.707107 0.000000 -0.707107
-0.707107 0.000000 -0.707107
0.707107 -0.000000 0.707107
0.000000 0.707107 -0.707107
-0.000000 -0.707107 0.707107
0.000000 -0.707107 -0.707107
0.707107 -0.000000 0.707107
-0.707107 0.707107 0.000000
-0.000000 -0.707107 -0.707107
0.000000 1.414214 0.000000
-0.000000 -0.707107 0.707107
0.000000 -0.707107 -0.707107
-0.707107 0.707107 0.000000
0.707107 0.000000 0.707107
-0.707107 0.000000 0.707107
0.707107 0.000000 -0.707107
-0.000000 -0.707107 0.707107
0.000000 0.707107 -0.707107
-0.707107 0.707107 0.000000
0.707107 -0.707107 -0.000000
0.707107 0.000000 -0.707107
-0.707107 -0.000000 0.707107
0.000000 -0.707107 -0.707107
-0.000000 0.707107 0.707107
-0.707107 -0.707107 0.000000
0.707107 0.707107 -0.000000
0.707107 0.000000 -0.707107
-0.707107 -0.707107 0.000000
0.000000 0.707107 0.707107
0.707107 -0.000000 0.707107
-0.707107 0.000000 -0.707107
0.707107 0.707107 0.000000
-0.707107 -0.707107 -0.000000
0.707107 -0.000000 0.707107
-0.707107 0.000000 -0.707107
-0.000000 -0.707107 -0.707107
0.000000 0.707107 0.707107
-0.707107 0.707107 0.000000
0.707107 -0.707107 -0.000000
-0.707107 -0.707107 -0.000000
0.707107 0.000000 0.707107
0.000000 0.707107 -0.707107
-0.707107 -0.707107 0.000000
0.707107 0.707107 -0.000000
-0.000000 0.707107 0.707107
0.000000 -0.707107 -0.707107
0.000000 -0.707107 -0.707107
-0.000000 0.707107 0.707107
-0.707107 0.000000 -0.707107
0.707107 0.000000 0.707107
-0.707107 -0.000000 -0.707107
-0.707107 -0.707107 -0.000000
0.707107 0.000000 0.707107
0.707107 0.707107 -0.000000
-0.000000 -0.707107 -0.707107
-0.707107 0.707107 -0.000000
0.707107 0.000000 0.707107
0.000000 -0.707107 0.707107
0.707107 0.707107 0.000000
-0.707107 -0.000000 -0.707107
-0.707107 0.000000 0.707107
0.707107 -0.000000 -0.707107
0.707107 -0.000000 -0.707107
-0.707107 0.707107 -0.000000
-0.707107 0.707107 -0.000000
-0.000000 -0.707107 0.707107
-0.707107 -0.000000 -0.707107
-1.414214 0.000000 -0.000000
1.414214 -0.000000 -0.000000
0.707107 -0.000000 0.707107
-0.000000 -0.707107 -0.707107
0.000000 0.707107 0.707107
0.707107 -0.707107 0.000000
-0.707107 -0.000000 0.707107
-0.000000 0.707107 -0.707107
0.707107 -0.000000 -0.707107
-0.707107 0.000000 0.707107
-0.707107 0.707107 0.000000
0.707107 -0.707107 -0.000000
-0.707107 0.707107 0.000000
0.707107 -0.707107 -0.000000
0.000000 -0.707107 -0.707107
-0.000000 0.707107 0.707107
0.707107 -0.000000 0.707107
-0.707107 0.000000 -0.707107
0.707107 0.000000 0.707107
-0.707107 -0.000000 -0.707107
0.000000 0.707107 0.707107
0.000000 -0.707107 -0.707107
-0.707107 0.707107 -0.000000
-0.707107 -0.707107 0.000000
1.414214 0.000000 -0.000000
0.707107 0.000000 0.707107
0.000000 -0.707107 -0.707107
-0.707107 0.000000 0.707107
0.707107 0.707107 0.000000
0.000000 0.707107 -0.707107
0.000000 -0.707107 0.707107
-0.707107 -0.000000 -0.707107
0.707107 0.000000 0.707107
-0.707107 0.000000 -0.707107
0.707107 -0.000000 0.707107
0.000000 -0.707107 0.707107
-0.707107 0.707107 0.000000
0.707107 -0.000000 -0.707107
-0.707107 -0.000000 -0.707107
0.707107 0.707107 0.000000
-0.707107 -0.707107 0.000000
0.707107 0.707107 -0.000000
-0.707107 0.707107 0.000000
-0.707107 -0.707107 0.000000
0.707107 -0.000000 -0.707107
0.707107 0.000000 0.707107
-0.707107 -0.000000 0.707107
0.707107 0.000000 -0.707107
0.707107 -0.707107 -0.000000
-0.707107 0.707107 0.000000
0.707107 0.707107 0.000000
0.000000 -0.707107 -0.707107
-0.707107 -0.000000 0.707107
0.000000 -0.707107 0.707107
-0.000000 0.707107 -0.707107
-0.000000 0.707107 0.707107
0.707107 -0.707107 0.000000
-0.707107 0.000000 -0.707107
0.707107 0.707107 -0.000000
-0.707107 -0.000000 0.707107
-0.000000 -0.707107 -0.707107
0.707107 0.000000 -0.707107
-0.707107 -0.000000 0.707107
0.000000 -0.707107 0.707107
0.000000 0.707107 -0.707107
0.707107 0.707107 0.000000
-0.707107 -0.707107 -0.000000
0.000000 0.707107 0.707107
0.000000 -0.707107 -0.707107
0.000000 0.707107 -0.707107
-0.000000 -0.707107 0.707107
0.707107 0.000000 -0.707107
-0.707107 0.000000 0.707107
0.707107 0.000000 0.707107
-0.707107 -0.000000 -0.707107
0.707107 0.707107 0.000000
-0.707107 -0.707107 -0.000000
0.000000 -0.707107 0.707107
0.000000 0.707107 -0.707107
0.707107 0.707107 0.000000
-0.707107 -0.707107 -0.000000
-0.707107 -0.707107 -0.000000
0.000000 0.707107 -0.707107
-0.000000 -0.707107 0.707107
-0.707107 0.707107 -0.000000
0.707107 -0.000000 -0.707107
0.000000 -0.707107 0.707107
-0.000000 -0.707107 0.707107
-0.000000 0.707107 -0.707107
0.707107 0.707107 -0.000000
-0.000000 -0.707107 -0.707107
-0.707107 0.000000 0.707107
0.000000 0.707107 0.707107
0.000000 1.414214 0.000000
-0.000000 -2.121320 -0.707107
0.000000 0.707107 0.707107
-0.000000 -0.707107 -0.707107
-0.000000 0.707107 0.707107
0.707107 0.000000 -0.707107
-0.707107 -0.707107 -0.000000
0.000000 0.707107 -0.707107
-0.000000 -0.707107 0.707107
0.707107 0.000000 0.707107
0.000000 -0.707107 -0.707107
0.000000 0.707107 -0.707107
-0.707107 -0.000000 0.707107
0.000000 -0.707107 -0.707107
-0.707107 -0.000000 0.707107
0.707107 0.707107 -0.000000
-0.707107 -0.000000 -0.707107
0.707107 0.707107 0.000000
0.000000 -0.707107 0.707107
-0.707107 -0.707107 -0.000000
0.707107 0.707107 -0.000000
0.707107 0.000000 0.707107
0.000000 0.707107 -0.707107
-0.707107 -0.707107 -0.000000
-0.000000 0.707107 -0.707107
0.000000 -0.707107 0.707107
-0.707107 -0.707107 -0.000000
0.707107 0.707107 -0.000000
-0.707107 0.707107 0.000000
0.707107 -0.707107 -0.000000
-0.707107 0.000000 -0.707107
0.707107 -0.000000 0.707107
0.707107 0.707107 0.000000
-0.707107 -0.707107 -0.000000
0.000000 -0.707107 -0.707107
0.000000 0.707107 0.707107
0.707107 -0.707107 0.000000
-0.707107 0.000000 -0.707107
0.000000 0.707107 0.707107
0.707107 -0.707107 0.000000
-0.707107 0.707107 -0.000000
0.000000 0.707107 0.707107
-0.707107 -0.707107 0.000000
0.707107 0.000000 -0.707107
0.707107 0.707107 -0.000000
-0.707107 -0.707107 -0.000000
-0.707107 0.000000 0.707107
0.707107 -0.000000 -0.707107
-0.000000 0.707107 0.707107
-0.000000 -0.707107 -0.707107
-0.707107 0.000000 0.707107
0.707107 -0.000000 -0.707107
-0.707107 -0.707107 0.000000
0.707107 0.707107 -0.000000
0.000000 -0.707107 0.707107
-0.000000 0.707107 -0.707107
-0.707107 0.707107 0.000000
0.707107 -0.707107 -0.000000
0.707107 -0.000000 -0.707107
-0.707107 0.000000 0.707107
-0.000000 0.707107 0.707107
0.707107 -0.707107 0.000000
-0.707107 -0.000000 -0.707107
-0.000000 -0.707107 0.707107
0.707107 0.000000 -0.707107
0.707107 0.000000 -0.707107
-0.707107 0.707107 0.000000
-0.707107 0.707107 0.000000
0.000000 -0.707107 0.707107
-0.000000 0.707107 -0.707107
-0.000000 -0.707107 -0.707107
0.707107 0.707107 -0.000000
-0.707107 -0.000000 0.707107
0.000000 0.707107 0.707107
0.000000 0.707107 -0.707107
-0.707107 -0.707107 -0.000000
0.707107 0.707107 0.000000
-0.000000 -0.707107 -0.707107
0.000000 0.707107 0.707107
-0.707107 -0.707107 0.000000
-0.000000 -0.707107 -0.707107
-0.707107 -0.000000 0.707107
-0.707107 -0.707107 0.000000
0.707107 0.707107 -0.000000
0.707107 0.000000 -0.707107
0.707107 -0.707107 0.000000
-0.707107 0.707107 -0.000000
-0.707107 0.000000 -0.707107
0.707107 -0.707107 -0.000000
-0.000000 0.707107 0.707107
-0.707107 0.000000 0.707107
0.707107 -0.707107 0.000000
0.000000 0.707107 -0.707107
0.707107 0.707107 0.000000
-0.707107 -0.707107 0.000000
0.707107 0.707107 -0.000000
-0.707107 -0.707107 -0.000000
-0.000000 -0.707107 -0.707107
-0.000000 0.707107 0.707107
-0.707107 0.000000 -0.707107
0.707107 -0.000000 0.707107
-0.000000 -0.707107 0.707107
0.000000 0.707107 -0.707107
0.707107 0.000000 -0.707107
0.000000 -0.707107 0.707107
-0.707107 0.707107 0.000000
0.707107 0.707107 0.000000
-0.707107 -0.707107 -0.000000
-0.000000 0.707107 0.707107
0.000000 -0.707107 -0.707107
-0.707107 -0.707107 -0.000000
0.707107 0.707107 -0.000000
-0.707107 -0.000000 0.707107
0.707107 0.707107 -0.000000
0.000000 -0.707107 -0.707107
-0.707107 0.000000 0.707107
0.707107 -0.000000 -0.707107
-0.000000 0.707107 -0.707107
-0.000000 -0.000000 1.414214
0.000000 -0.707107 -0.707107
0.707107 -0.000000 0.707107
-0.000000 -0.707107 -0.707107
-0.707107 0.707107 0.000000
-0.707107 -0.000000 -0.707107
0.707107 -0.000000 0.707107
0.000000 -0.707107 -0.707107
-0.000000 0.707107 0.707107
-0.000000 -0.707107 0.707107
0.000000 0.707107 -0.707107
-0.707107 -0.000000 0.707107
0.707107 0.000000 -0.707107
-0.707107 -0.000000 0.707107
0.707107 0.000000 -0.707107
-0.707107 0.707107 -0.000000
0.000000 -0.707107 0.707107
0.707107 -0.000000 -0.707107
0.707107 0.707107 0.000000
-0.707107 -0.707107 -0.000000
0.707107 -0.707107 0.000000
-0.707107 0.707107 -0.000000
0.707107 0.000000 -0.707107
-0.707107 0.000000 0.707107
0.000000 -0.707107 0.707107
0.707107 0.707107 -0.000000
-0.707107 0.000000 -0.707107
-0.000000 0.707107 0.707107
-0.707107 -0.707107 0.000000
0.707107 0.000000 -0.707107
0.707107 0.707107 0.000000
0.707107 -0.707107 0.000000
-0.707107 0.707107 0.000000
-0.707107 -0.707107 0.000000
-0.000000 0.707107 0.707107
0.000000 -0.707107 -0.707107
0.000000 -0.707107 -0.707107
0.707107 0.707107 -0.000000
-0.707107 -0.707107 0.000000
0.000000 -0.707107 -0.707107
-0.707107 0.707107 0.000000
0.707107 -0.000000 0.707107
-0.707107 0.000000 -0.707107
0.707107 -0.000000 0.707107
-0.707107 0.707107 0.000000
0.000000 -0.707107 0.707107
0.707107 -0.000000 -0.707107
0.707107 -0.707107 -0.000000
-0.707107 0.000000 0.707107
-0.000000 0.707107 -0.707107
-0.000000 -0.707107 0.707107
-0.707107 0.000000 -0.707107
0.707107 0.707107 0.000000
-0.000000 -0.707107 0.707107
0.707107 -0.000000 -0.707107
-0.707107 0.707107 0.000000
0.000000 0.707107 0.707107
-0.707107 0.000000 -0.707107
0.707107 -0.707107 0.000000
0.707107 -0.000000 -0.707107
0.000000 -0.707107 0.707107
-0.707107 0.707107 0.000000
0.707107 -0.707107 -0.000000
0.000000 0.707107 -0.707107
-0.000000 -0.707107 0.707107
-0.707107 0.000000 0.707107
0.707107 -0.000000 -0.707107
-0.707107 0.000000 0.707107
0.707107 -0.000000 -0.707107
0.000000 -0.707107 -0.707107
0.000000 -0.707107 -0.707107
-0.000000 0.707107 0.707107