# vtk DataFile Version 3.0
Configuration exported from OpenDiS
ASCII
DATASET UNSTRUCTURED_GRID
POINTS 41234 FLOAT
-29412.000000 -29412.000000 -29412.000000
29412.000000 -29412.000000 -29412.000000
-29412.000000 29412.000000 -29412.000000
-29412.000000 -29412.000000 29412.000000
29412.000000 29412.000000 -29412.000000
29412.000000 -29412.000000 29412.000000
-29412.000000 29412.000000 29412.000000
29412.000000 29412.000000 29412.000000
-28210.725996 28411.125314 -22626.176725
-29061.209155 27417.051267 -22769.767613
-28210.725996 28411.125314 -22626.176725
-27041.899792 29391.118112 -22815.010131
-12294.549308 15269.899580 -20396.594258
-13155.578496 14035.953170 -20023.677036
-12294.549308 15269.899580 -20396.594258
-12142.646003 15152.936308 -20361.654225
-12294.549308 15269.899580 -20396.594258
-12916.865282 15892.215554 -20396.594258
-27819.178211 -25424.018251 25948.558094
-28212.113517 -25348.541989 25631.095604
-27819.178211 -25424.018251 25948.558094
-27819.178211 -25312.546960 26060.029385
-27819.178211 -25424.018251 25948.558094
-28816.415356 -26239.797462 26130.016028
-25703.371922 19264.547561 -15626.400778
-25703.371922 19622.889133 -15967.810716
-25703.371922 19264.547561 -15626.400778
-25703.371922 18448.867176 -14797.370289
17516.613857 11743.680991 19785.711073
16857.841676 11465.587420 20722.576825
17516.613857 11743.680991 19785.711073
18105.132243 12085.945531 18854.928148
5070.048675 -27817.883882 -17.861905
5240.599533 -26867.454400 -1138.842246
5070.048675 -27817.883882 -17.861905
5187.178680 -28771.279760 818.403967
21438.987059 23446.603319 24775.136889
20602.551047 22768.469801 24933.439383
21438.987059 23446.603319 24775.136889
20615.466992 22891.848438 23396.861941
21438.987059 23446.603319 24775.136889
21438.987059 24142.099544 25470.633114
-8278.691592 -18339.823228 4305.915443
-8877.926126 -18923.206117 4305.915443
-8278.691592 -18339.823228 4305.915443
-7893.918455 -17952.378822 4305.915443
-2567.943240 -12646.285404 8648.337244
-1542.653976 -12646.285404 7616.179382
-2567.943240 -12646.285404 8648.337244
-3366.062430 -12646.285404 9445.625547
23702.432638 11385.059283 -21354.457810
24225.747815 11092.344235 -20538.427585
23702.432638 11385.059283 -21354.457810
23357.626618 11636.924809 -21951.129356
-23608.614463 620.937217 -17295.629984
-23608.615531 1400.656543 -18075.343987
-23608.614463 620.937217 -17295.629984
-23608.613396 -158.510201 -16516.187889
16482.618866 -15801.058654 -18578.145947
17222.415139 -16540.854927 -18578.145947
16482.618866 -15801.058654 -18578.145947
15734.490958 -15052.930747 -18578.145947
15286.932961 19429.907753 13780.959702
15031.956829 19272.170124 14193.673464
15286.932961 19429.907753 13780.959702
15648.805041 19892.796239 12956.199136
27483.567268 -22642.141229 -19156.496810
27170.578130 -23027.924617 -19229.291060
27483.567268 -22642.141229 -19156.496810
27698.443394 -22159.966734 -18889.198441
7584.875056 11844.416444 21498.122764
7887.622587 11629.285195 21410.506482
7584.875056 11844.416444 21498.122764
8666.711535 12680.708187 21743.668944
29230.365316 -8249.703541 -2391.282755
29411.999998 -8334.004456 -2293.948993
-29411.999991 -8334.004456 -2293.948993
-29144.649042 -8458.088306 -2150.681890
29230.365316 -8249.703541 -2391.282755
28463.078724 -7759.764898 -2668.630703
25886.914370 16569.337854 8604.386117
25316.857375 17292.999534 8757.990803
25886.914370 16569.337854 8604.386117
26582.204168 15695.909781 8426.247842
-25317.319796 -17045.749183 25702.337008
-26610.998645 -17082.590888 24445.499864
-25317.319796 -17045.749183 25702.337008
-24668.251595 -17022.518250 26328.174276
6094.331871 -22273.860693 -5984.337843
7020.013057 -23199.541879 -5984.337843
6094.331871 -22273.860693 -5984.337843
5753.982251 -22676.575724 -5241.273192
6094.331871 -22273.860693 -5984.337843
4848.719591 -21578.468506 -6534.557936
-17841.258114 -9075.903680 25917.127176
-17852.427860 -9075.903680 25905.957431
-17841.258114 -9075.903680 25917.127176
-18526.895650 -8924.299564 25383.093757
-7860.529333 -15065.195270 -11041.501245
-8233.806376 -14045.106218 -10394.689236
-7860.529333 -15065.195270 -11041.501245
-8142.624098 -16013.587588 -12271.988328
27080.016317 -18634.689609 18640.517687
26839.940554 -19161.731298 17873.400235
27080.016317 -18634.689609 18640.517687
27238.516550 -18180.966444 18935.740617
6606.381507 -5149.717811 -4284.883300
7051.893574 -6315.954712 -3564.158467
6606.381507 -5149.717811 -4284.883300
6235.451317 -4144.269682 -4919.401247
-17093.844935 2852.060353 25322.500438
-17009.064533 3519.035576 24740.305618
-17093.844935 2852.060353 25322.500438
-17248.348875 4064.006517 26379.942664
-14432.092197 14178.055347 12551.222960
-13410.219020 13156.182170 12551.222960
-14432.092197 14178.055347 12551.222960
-15243.967505 14989.930655 12551.222960
20898.586334 -21946.988583 9153.701260
20057.526420 -22463.328353 9478.421405
20898.586334 -21946.988583 9153.701260
21540.249880 -21554.418285 8904.608012
12423.703582 -11080.880682 -4646.888129
12792.900876 -11869.028051 -5804.232793
12423.703582 -11080.880682 -4646.888129
12751.514909 -10328.233901 -4222.052676
12423.703582 -11080.880682 -4646.888129
12715.073531 -11215.363940 -4490.001437
27194.754295 20910.642853 24685.100254
28055.920603 20910.642853 25589.724979
27194.754295 20910.642853 24685.100254
27960.971828 21693.309353 24701.549221
-9822.736793 27239.761010 -27195.022242
-10047.137843 27644.361580 -27375.221762
-9822.736793 27239.761010 -27195.022242
-9088.947271 26018.443891 -26707.494079
21610.450239 2851.904011 5202.643265
22204.461951 2472.339283 6176.219705
21610.450239 2851.904011 5202.643265
21248.529277 2851.904011 4840.722303
21610.450239 2851.904011 5202.643265
21468.182209 2492.545098 5419.734149
-20203.934865 -22222.038981 1447.092356
-20370.223220 -21423.820448 2079.022534
-20203.934865 -22222.038981 1447.092356
-19811.094915 -22912.030061 1149.941226
21998.776634 -27781.534512 -11373.940982
21966.813653 -28203.745860 -11828.115311
21998.776634 -27781.534512 -11373.940982
22116.445459 -27490.165633 -10964.903279
-11415.227302 -12058.650165 26401.090670
-10382.403678 -11325.097828 26700.361957
-11415.227302 -12058.650165 26401.090670
-12066.637183 -12688.820113 26379.850357
-10043.761719 -9876.242607 16658.563872
-10247.804217 -10879.908841 17458.187608
-10043.761719 -9876.242607 16658.563872
-9667.919760 -8749.363774 15907.526998
23830.648353 -18556.855239 7023.392996
24141.333671 -19293.744970 7449.597410
23830.648353 -18556.855239 7023.392996
23538.524412 -17767.836211 6526.497910
15321.025143 -28929.929976 24786.196268
14053.533171 -28202.969150 24139.516652
15321.025143 -28929.929976 24786.196268
15671.882214 -29188.067998 24985.063787
-17113.097697 -22111.358626 -11822.984042
-16395.981760 -22111.358626 -12540.087444
-17113.097697 -22111.358626 -11822.984042
-18251.640714 -22111.382347 -10690.413670
-28131.860828 24043.964801 -13472.678809
-28712.302900 24113.626562 -12822.567648
-28131.860828 24043.964801 -13472.678809
-27624.998000 23989.851660 -14033.658474
-4708.698392 -7376.692601 -10680.306120
-4775.073231 -8361.011775 -9629.612107
-4708.698392 -7376.692601 -10680.306120
-4550.380690 -6803.520957 -11411.795466
-9227.122667 7193.211967 -23545.969231
-9418.976382 7654.727982 -22892.599502
-9227.122667 7193.211967 -23545.969231
-9111.877869 6640.955212 -24213.470784
-17760.110662 5736.020285 -20625.667072
-18284.159475 6031.560165 -21445.254171
-17760.110662 5736.020285 -20625.667072
-17079.033487 5270.737188 -19479.306800
-6166.253831 27963.028701 -5837.021333
-5713.877979 28415.404554 -5837.021333
-6166.253831 27963.028701 -5837.021333
-6617.931025 27511.351507 -5837.021333
24848.328915 22871.390860 26301.563226
23526.457303 23410.235779 25518.536533
24848.328915 22871.390860 26301.563226
26066.635403 22143.314581 26791.793435
-4419.645660 -17844.061063 -23794.689691
-3622.218832 -18641.487890 -23794.689691
-4419.645660 -17844.061063 -23794.689691
-5172.157544 -17091.549179 -23794.689691
-3040.319472 28567.698011 -26649.117266
-4098.402049 28289.386191 -25869.346509
-3040.319472 28567.698011 -26649.117266
-1906.570059 28785.573587 -27564.991104
23178.045839 11287.273104 -11320.340625
22473.338512 10512.656787 -11390.249615
23178.045839 11287.273104 -11320.340625
23906.746571 11945.837050 -11390.021820
-27851.705975 29087.584772 12461.668602
-28583.887954 29087.584772 13175.749353
-27851.705975 29087.584772 12461.668602
-26968.888468 29087.584772 11592.778325
-13504.778158 27569.003767 -17183.352825
-14373.979354 27633.421451 -16249.733945
-13504.778158 27569.003767 -17183.352825
-12508.367584 27359.793106 -18388.974060
-6519.688831 -12365.757700 -23647.330005
-6519.688831 -11893.495630 -24123.822059
-6519.688831 -12365.757700 -23647.330005
-6519.688831 -13432.823411 -22574.421013
2044.109090 18787.965475 15916.871090
1957.027587 18091.040203 16700.877865
2044.109090 18787.965475 15916.871090
1552.245269 19741.730344 15454.970042
-10812.542431 -1340.155487 20961.681373
-10763.889333 -686.886985 20259.759772
-10812.542431 -1340.155487 20961.681373
-10998.756296 -1984.945696 21792.685447
-15451.472087 -17824.506589 -16030.793092
-15744.651625 -18117.686365 -16030.792659
-15451.472087 -17824.506589 -16030.793092
-14566.783459 -16939.817475 -16030.793174
-16031.756960 -21263.007120 -25712.805958
-16087.084652 -20967.413622 -25361.884768
-16031.756960 -21263.007120 -25712.805958
-16402.276942 -22297.035818 -27117.354637
19302.774309 -2076.690441 -616.091788
19155.306117 -2144.261819 -536.194974
19302.774309 -2076.690441 -616.091788
19302.131280 -2755.020872 -1293.779190
19302.774309 -2076.690441 -616.091788
19017.333596 -1307.209336 -133.911563
23777.357203 20651.158309 -15989.596981
24714.065846 20272.719051 -16547.866365
23777.357203 20651.158309 -15989.596981
23178.431901 19575.277359 -16466.552628
23777.357203 20651.158309 -15989.596981
23209.351440 19777.899580 -14548.332488
11922.790545 -19892.407855 20735.220896
12892.180362 -20629.634957 20503.058182
[...]
CELL_DATA 20614
VECTORS Burgers FLOAT
0.000000 0.000000 0.000000
0.707107 0.000000 -0.707107
-0.707107 -0.000000 0.707107
0.000000 0.707107 -0.707107
0.707107 0.000000 0.707107
-0.707107 -0.707107 0.000000
0.707107 -0.707107 0.000000
-0.707107 0.000000 -0.707107
-0.000000 0.707107 0.707107
0.000000 0.707107 0.707107
-0.000000 -0.707107 -0.707107
-0.707107 0.000000 0.707107
0.707107 -0.000000 -0.707107
-0.707107 0.000000 0.707107
0.707107 -0.000000 -0.707107
-0.707107 -0.707107 -0.000000
0.707107 0.000000 0.707107
0.000000 0.707107 -0.707107
-0.707107 0.707107 -0.000000
0.707107 -0.707107 0.000000
-0.707107 0.000000 -0.707107
0.707107 0.000000 0.707107
-0.707107 -0.000000 -0.707107
0.707107 0.000000 0.707107
-0.000000 0.707107 0.707107
0.000000 -0.707107 -0.707107
0.707107 0.707107 0.000000
-0.707107 -0.707107 -0.000000
-0.707107 -0.000000 0.707107
0.707107 0.000000 -0.707107
-0.707107 0.000000 0.707107
0.707107 -0.000000 -0.707107
-0.000000 0.707107 -0.707107
0.000000 -0.707107 0.707107
-0.707107 0.000000 -0.707107
-0.707107 0.000000 -0.707107
0.707107 -0.000000 0.707107
0.707107 -0.707107 -0.000000
-0.707107 0.707107 -0.000000
0.707107 0.707107 0.000000
-0.707107 -0.707107 -0.000000
0.707107 0.707107 0.000000
0.000000 -0.707107 0.707107
-0.707107 0.000000 -0.707107
-0.707107 -0.000000 -0.707107
0.707107 0.000000 0.707107
-0.707107 0.000000 -0.707107
0.707107 -0.000000 0.707107
-0.000000 -0.707107 -0.707107
0.000000 0.707107 0.707107
-0.707107 0.707107 -0.000000
0.707107 -0.707107 0.000000
0.707107 0.000000 0.707107
-0.707107 0.000000 -0.707107
-0.707107 -0.707107 0.000000
0.707107 0.707107 -0.000000
0.707107 0.707107 0.000000
-0.707107 -0.707107 -0.000000
-0.707107 -0.707107 -0.000000
0.707107 -0.000000 -0.707107
0.000000 0.707107 0.707107
-0.707107 -0.000000 0.707107
0.707107 -0.000000 -0.707107
0.707107 -0.707107 0.000000
-0.707107 0.707107 -0.000000
-0.707107 -0.707107 -0.000000
0.707107 0.000000 0.707107
0.000000 0.707107 -0.707107
0.707107 0.000000 0.707107
-0.707107 -0.000000 -0.707107
-0.707107 0.707107 0.000000
0.707107 -0.707107 -0.000000
0.707107 -0.000000 0.707107
-0.707107 0.000000 -0.707107
-0.000000 0.707107 -0.707107
0.000000 -0.707107 0.707107
-0.000000 0.707107 -0.707107
0.000000 -0.707107 0.707107
0.707107 -0.707107 -0.000000
-0.707107 0.707107 0.000000
-0.707107 0.000000 -0.707107
0.707107 -0.000000 0.707107
0.707107 0.707107 0.000000
-0.707107 -0.707107 -0.000000
0.000000 0.707107 -0.707107
-0.000000 -0.707107 0.707107
0.000000 -0.707107 -0.707107
-0.000000 0.707107 0.707107
0.000000 0.707107 -0.707107
-0.000000 -0.707107 0.707107
0.707107 -0.707107 0.000000
-0.707107 0.707107 -0.000000
-0.707107 -0.000000 -0.707107
0.707107 0.000000 0.707107
0.707107 0.707107 0.000000
-0.707107 -0.707107 -0.000000
0.707107 -0.000000 -0.707107
-0.707107 0.000000 0.707107
0.707107 -0.000000 -0.707107
-0.707107 0.000000 0.707107
0.707107 0.000000 0.707107
-0.707107 -0.000000 -0.707107
0.707107 -0.000000 -0.707107
-0.707107 0.000000 0.707107
-0.000000 0.707107 0.707107
-0.000000 -0.707107 -0.707107
-0.707107 0.000000 0.707107
0.707107 -0.000000 -0.707107
0.000000 0.707107 -0.707107
-0.000000 -0.707107 0.707107
-0.707107 0.707107 -0.000000
0.707107 -0.707107 0.000000
0.000000 -0.707107 -0.707107
-0.000000 0.707107 0.707107
0.707107 0.707107 -0.000000
-0.707107 -0.000000 0.707107
0.000000 -0.707107 -0.707107
-0.707107 0.707107 -0.000000
0.707107 -0.000000 -0.707107
0.000000 -0.707107 0.707107
-0.707107 0.000000 0.707107
0.707107 -0.000000 -0.707107
0.000000 -0.707107 0.707107
-0.000000 0.707107 -0.707107
0.707107 -0.000000 0.707107
-0.707107 0.000000 -0.707107
0.000000 0.707107 -0.707107
-0.000000 -0.707107 0.707107
0.707107 -0.707107 0.000000
-0.707107 0.707107 -0.000000
0.707107 0.707107 -0.000000
-0.707107 -0.707107 0.000000
-0.707107 -0.707107 0.000000
0.707107 0.707107 -0.000000
-0.707107 0.000000 0.707107
0.707107 -0.000000 -0.707107
-0.707107 -0.000000 0.707107
0.707107 0.000000 -0.707107
0.000000 0.707107 -0.707107
-0.000000 -0.707107 0.707107
0.000000 -0.707107 0.707107
-0.000000 0.707107 -0.707107
-0.707107 0.000000 -0.707107
0.707107 -0.000000 0.707107
-0.707107 -0.000000 0.707107
0.707107 0.000000 -0.707107
0.707107 -0.707107 0.000000
-0.707107 0.707107 -0.000000
0.707107 0.000000 0.707107
-0.707107 -0.000000 -0.707107
0.707107 0.000000 0.707107
0.000000 0.707107 -0.707107
-0.707107 -0.707107 -0.000000
0.000000 0.707107 -0.707107
-0.000000 -0.707107 0.707107
0.000000 -0.707107 0.707107
-0.000000 0.707107 -0.707107
-0.707107 0.707107 0.000000
0.707107 -0.707107 -0.000000
0.000000 -0.707107 0.707107
-0.000000 0.707107 -0.707107
-0.707107 -0.707107 0.000000
0.707107 0.707107 0.000000
-0.707107 0.707107 -0.000000
0.707107 -0.707107 0.000000
0.707107 -0.000000 0.707107
-0.707107 0.000000 -0.707107
-0.707107 0.707107 0.000000
0.707107 -0.707107 -0.000000
-0.707107 -0.000000 -0.707107
0.707107 -0.000000 0.707107
-0.707107 -0.707107 -0.000000
0.707107 0.707107 -0.000000
-0.707107 0.000000 -0.707107
0.707107 -0.000000 0.707107
0.707107 -0.707107 0.000000
-0.707107 0.707107 -0.000000
0.707107 0.707107 0.000000
-0.707107 -0.707107 0.000000
-0.707107 0.707107 -0.000000
0.707107 -0.707107 0.000000
0.000000 0.707107 0.707107
-0.707107 -0.707107 0.000000
0.707107 0.000000 -0.707107
0.707107 0.000000 0.707107
-0.707107 -0.000000 -0.707107
-0.707107 0.000000 -0.707107
0.707107 -0.000000 0.707107
0.000000 -0.707107 -0.707107
0.000000 -0.707107 -0.707107
-0.000000 0.707107 0.707107
-0.707107 0.000000 0.707107
0.707107 0.000000 -0.707107
-0.707107 -0.000000 0.707107
0.707107 0.000000 -0.707107
0.707107 -0.000000 0.707107
0.000000 -0.707107 -0.707107
-0.707107 0.707107 -0.000000
0.707107 0.000000 -0.707107
-0.707107 -0.000000 0.707107
-0.707107 0.000000 -0.707107
0.707107 -0.000000 0.707107
0.707107 -0.000000 0.707107
-0.707107 -0.707107 0.000000
0.707107 0.707107 -0.000000
0.707107 -0.707107 0.000000
-0.707107 0.707107 -0.000000
0.000000 -0.707107 -0.707107
-0.000000 0.707107 0.707107
-0.000000 -0.707107 0.707107
0.000000 0.707107 -0.707107
0.000000 1.414214 -0.000000
-0.000000 -1.414214 0.000000
-0.000000 0.707107 -0.707107
-0.000000 -0.707107 0.707107
-0.000000 0.707107 -0.707107
0.000000 -0.707107 0.707107
-0.000000 -0.707107 0.707107
-0.000000 0.707107 -0.707107
0.707107 0.000000 -0.707107
-0.707107 0.000000 0.707107
-0.707107 0.707107 0.000000
0.707107 -0.707107 -0.000000
-0.000000 0.707107 0.707107
-0.000000 0.707107 0.707107
0.000000 -0.707107 -0.707107
-0.707107 0.000000 0.707107
-0.000000 0.707107 -0.707107
0.707107 -0.707107 -0.000000
-0.707107 -0.707107 -0.000000
0.707107 0.707107 -0.000000
0.707107 0.000000 0.707107
-0.707107 -0.000000 -0.707107
0.707107 0.707107 -0.000000
-0.707107 -0.707107 -0.000000
-0.707107 -0.707107 0.000000
0.707107 0.707107 -0.000000
-0.707107 0.707107 0.000000
-0.000000 -0.707107 -0.707107
0.707107 0.000000 0.707107
-0.707107 -0.707107 0.000000
0.707107 0.707107 0.000000
-0.000000 0.707107 0.707107
0.000000 -0.707107 -0.707107
-0.707107 0.000000 -0.707107
0.707107 -0.000000 0.707107
0.000000 0.707107 0.707107
-0.000000 -0.707107 -0.707107
-0.000000 -0.707107 0.707107
-0.000000 -0.707107 0.707107
0.000000 0.707107 -0.707107
0.000000 0.707107 -0.707107
0.707107 0.000000 0.707107
-0.707107 -0.707107 0.000000
0.000000 -0.707107 -0.707107
-0.000000 0.707107 0.707107
0.707107 -0.707107 -0.000000
-0.707107 0.707107 0.000000
-0.707107 0.000000 -0.707107
0.707107 -0.000000 0.707107
-0.000000 0.707107 0.707107
-0.707107 -0.707107 0.000000
0.707107 0.000000 -0.707107
-0.707107 0.000000 -0.707107
0.707107 -0.000000 0.707107
0.707107 0.000000 0.707107
-0.707107 -0.000000 -0.707107
0.707107 -0.707107 0.000000
-0.707107 0.707107 -0.000000
-0.707107 -0.000000 0.707107
0.707107 -0.000000 -0.707107
-0.707107 -0.000000 0.707107
0.707107 0.000000 -0.707107
0.707107 -0.707107 0.000000
-0.707107 0.707107 -0.000000
0.707107 -0.000000 0.707107
-0.707107 0.000000 -0.707107
-0.707107 0.000000 0.707107
-0.707107 0.000000 0.707107
0.707107 -0.000000 -0.707107
0.000000 -0.707107 -0.707107
-0.000000 0.707107 0.707107
-0.000000 0.707107 0.707107
0.000000 -0.707107 -0.707107
-0.707107 0.000000 0.707107
0.707107 -0.000000 -0.707107
-0.000000 -0.000000 -1.414214
0.000000 0.000000 1.414214
-0.000000 -1.414214 0.000000
-0.000000 1.414214 -0.000000
-0.707107 -0.000000 -0.707107
-0.000000 -0.707107 0.707107
0.707107 0.000000 0.707107
0.000000 0.707107 -0.707107
-0.000000 0.707107 0.707107
0.000000 -0.707107 -0.707107
0.707107 -0.707107 0.000000
-0.707107 0.707107 -0.000000
0.000000 -0.707107 -0.707107
-0.000000 0.707107 0.707107
-0.707107 -0.000000 -0.707107
0.707107 -0.000000 0.707107
0.707107 0.000000 -0.707107
-0.707107 0.000000 0.707107
0.707107 -0.000000 -0.707107
-0.707107 0.000000 0.707107
0.000000 -0.707107 -0.707107
-0.000000 0.707107 0.707107
-0.707107 0.000000 0.707107
0.707107 0.707107 -0.000000
0.000000 -0.707107 -0.707107
-0.000000 0.707107 0.707107
0.000000 -0.707107 -0.707107
-0.000000 0.707107 -0.707107
-0.707107 -0.707107 -0.000000
0.707107 0.000000 0.707107
-0.000000 0.707107 -0.707107
0.000000 -0.707107 0.707107
0.000000 -0.707107 -0.707107
-0.000000 0.707107 0.707107
0.000000 0.707107 -0.707107
-0.000000 -0.707107 0.707107
-0.707107 0.000000 -0.707107
0.000000 -0.707107 0.707107
0.707107 0.707107 -0.000000
-0.707107 -0.000000 0.707107
0.707107 0.000000 -0.707107
0.707107 0.000000 -0.707107
-0.707107 -0.000000 0.707107
0.707107 0.707107 0.000000
-0.707107 -0.707107 -0.000000
0.000000 0.707107 0.707107
0.000000 -0.707107 -0.707107
-0.707107 -0.707107 0.000000
0.707107 0.707107 -0.000000
-0.000000 0.707107 -0.707107
0.000000 -0.707107 0.707107
-0.000000 -0.707107 0.707107
0.000000 0.707107 0.707107
0.707107 -0.000000 -0.707107
-0.707107 0.000000 -0.707107
0.707107 0.000000 -0.707107
-0.707107 -0.000000 0.707107
-0.707107 0.707107 0.000000
0.707107 -0.707107 -0.000000
0.707107 -0.000000 -0.707107
-0.707107 0.000000 -0.707107
0.000000 0.000000 1.414214
0.000000 -0.707107 -0.707107
-0.000000 0.707107 0.707107
-0.707107 -0.707107 0.000000
0.707107 0.707107 -0.000000
0.000000 -0.707107 -0.707107
-0.000000 0.707107 0.707107
-0.707107 -0.000000 -0.707107
0.707107 0.000000 0.707107
-0.000000 -0.707107 0.707107
0.000000 0.707107 -0.707107
-0.707107 -0.000000 -0.707107
0.707107 0.000000 0.707107
-0.707107 0.707107 0.000000
0.707107 -0.707107 -0.000000
-0.707107 0.707107 0.000000
0.707107 -0.707107 -0.000000
-0.000000 -0.707107 -0.707107
-0.000000 -0.707107 -0.707107
0.000000 0.707107 0.707107
0.000000 -1.414214 0.000000
0.000000 1.414214 -0.000000
-0.707107 0.000000 0.707107
0.000000 -0.707107 -0.707107
0.707107 0.707107 0.000000
-0.707107 0.707107 -0.000000
0.707107 0.000000 0.707107
0.000000 -0.707107 -0.707107
0.000000 -0.707107 -0.707107
0.707107 0.000000 0.707107
-0.707107 0.707107 0.000000
-0.707107 -0.707107 -0.000000
0.707107 0.707107 0.000000
-0.000000 0.707107 0.707107
0.000000 -0.707107 -0.707107
-0.707107 0.000000 0.707107
0.707107 -0.000000 -0.707107
-0.707107 -0.707107 -0.000000
0.707107 0.707107 0.000000
-0.000000 -1.414214 -0.000000
0.000000 1.414214 0.000000
0.707107 -0.000000 0.707107
-0.707107 0.000000 -0.707107
-0.000000 -0.707107 0.707107
0.000000 0.707107 -0.707107
-0.000000 0.707107 0.707107
0.000000 -0.707107 -0.707107
-0.707107 0.707107 0.000000
0.707107 -0.707107 -0.000000
-0.707107 -0.000000 0.707107
0.707107 0.000000 -0.707107
0.707107 0.000000 -0.707107
-0.707107 -0.000000 0.707107
0.707107 -0.000000 -0.707107
-0.707107 -0.000000 0.707107
0.000000 0.707107 0.707107
-0.000000 -0.707107 -0.707107
-0.000000 -0.000000 -1.414214
0.000000 0.000000 1.414214
0.707107 0.000000 0.707107
-0.707107 -0.000000 -0.707107
0.707107 0.707107 0.000000
-0.707107 -0.707107 -0.000000
-0.000000 0.707107 0.707107
0.000000 -0.707107 -0.707107
0.707107 0.000000 0.707107
-0.707107 0.000000 -0.707107
-0.707107 -0.707107 0.000000
0.707107 0.707107 -0.000000
-0.707107 0.000000 0.707107
0.707107 -0.000000 -0.707107
-0.707107 0.707107 0.000000
0.707107 -0.707107 -0.000000
-0.707107 0.000000 -0.707107
0.707107 -0.000000 0.707107
0.707107 0.707107 0.000000
-0.707107 -0.707107 0.000000
-0.000000 0.707107 -0.707107
0.000000 -0.707107 0.707107
0.707107 0.000000 -0.707107
-0.707107 -0.000000 0.707107
0.707107 -0.000000 -0.707107
-0.707107 0.000000 -0.707107
0.707107 -0.000000 0.707107
-0.707107 -0.000000 -0.707107
0.707107 0.000000 0.707107
-0.000000 -0.707107 -0.707107
0.000000 0.707107 0.707107
-0.707107 0.707107 0.000000
0.707107 -0.707107 -0.000000
-0.707107 0.707107 0.000000
0.707107 -0.707107 0.000000
0.000000 0.707107 0.707107
-0.000000 -0.707107 -0.707107
-0.000000 -0.707107 -0.707107
0.707107 -0.000000 0.707107
-0.707107 0.000000 -0.707107
-0.000000 0.707107 0.707107
-0.707107 -0.000000 -0.707107
0.707107 -0.707107 -0.000000
0.707107 0.707107 0.000000
-0.707107 -0.707107 -0.000000
0.000000 0.707107 0.707107
-0.000000 -0.707107 -0.707107
0.707107 0.000000 -0.707107
-0.707107 -0.000000 0.707107
0.707107 0.707107 0.000000
-0.707107 -0.707107 0.000000
-0.000000 -0.707107 0.707107
0.000000 0.707107 -0.707107
-0.000000 -0.707107 -0.707107
0.707107 0.707107 0.000000
-0.707107 -0.000000 0.707107
-0.707107 0.707107 0.000000
0.707107 0.000000 0.707107
-0.000000 -0.707107 -0.707107
0.000000 0.707107 0.707107
-0.000000 -0.707107 -0.707107
-0.707107 0.000000 -0.707107
0.707107 -0.000000 0.707107
0.707107 0.000000 -0.707107
-0.000000 -0.707107 0.707107
-0.707107 0.707107 -0.000000
-0.707107 -0.000000 -0.707107
0.707107 0.000000 0.707107
-0.707107 0.707107 -0.000000
0.707107 0.000000 0.707107
-0.707107 -0.000000 -0.707107
-0.707107 -0.707107 0.000000
0.707107 -0.000000 -0.707107
-0.000000 0.707107 0.707107
0.707107 0.707107 0.000000
-0.707107 -0.707107 -0.000000
-0.707107 -0.707107 0.000000
0.707107 0.707107 -0.000000
-0.707107 -0.707107 -0.000000
0.707107 0.707107 0.000000
-0.000000 -0.707107 -0.707107
0.000000 0.707107 0.707107
-0.000000 0.707107 0.707107
-0.707107 -0.707107 0.000000
0.707107 -0.000000 -0.707107
-0.707107 -0.707107 -0.000000
0.707107 0.707107 -0.000000
-0.707107 -0.000000 -0.707107
1.414214 -0.000000 -0.000000
-0.707107 -0.000000 0.707107
0.000000 0.707107 -0.707107
0.707107 -0.000000 0.707107
-0.707107 -0.707107 -0.000000
0.000000 -0.707107 -0.707107
-0.000000 0.707107 0.707107
-0.000000 -0.000000 -1.414214
-0.000000 0.707107 0.707107
0.000000 -0.707107 -0.707107
-0.000000 0.707107 -0.707107
-0.000000 -0.707107 0.707107
-0.707107 0.707107 -0.000000
0.707107 0.000000 -0.707107
-0.000000 -0.707107 0.707107
0.000000 -0.707107 -0.707107
-0.000000 0.707107 0.707107
0.707107 0.000000 -0.707107
-0.707107 -0.707107 -0.000000
-0.000000 0.707107 0.707107
-0.000000 -0.707107 -0.707107
0.000000 0.707107 0.707107
-0.000000 -0.707107 0.707107
0.000000 0.707107 -0.707107
0.707107 -0.000000 -0.707107
-0.707107 -0.000000 0.707107
-0.000000 0.707107 0.707107
-0.707107 0.000000 -0.707107
0.707107 -0.707107 -0.000000
-0.707107 0.707107 0.000000
0.707107 -0.707107 0.000000
0.707107 -0.707107 0.000000
-0.707107 0.707107 -0.000000
0.000000 -0.707107 -0.707107
-0.000000 0.707107 0.707107
-0.000000 0.707107 0.707107
-0.000000 -0.707107 -0.707107
0.707107 0.707107 -0.000000
0.000000 -0.707107 0.707107
-0.707107 -0.000000 -0.707107
0.000000 -0.707107 0.707107
0.707107 0.000000 -0.707107
-0.707107 0.707107 -0.000000
0.000000 0.707107 -0.707107
-0.000000 -0.707107 0.707107
-0.707107 0.000000 -0.707107
0.707107 -0.000000 0.707107
-0.000000 0.707107 -0.707107
0.707107 0.707107 0.000000
-0.707107 -0.707107 -0.000000
0.707107 0.707107 0.000000
-0.707107 -0.707107 -0.000000
-0.707107 0.000000 -0.707107
0.707107 -0.000000 0.707107
-0.707107 0.000000 -0.707107
0.707107 -0.000000 0.707107
-0.000000 0.707107 -0.707107
0.000000 -0.707107 0.707107
0.707107 -0.707107 0.000000
-0.707107 0.707107 -0.000000
0.707107 -0.707107 0.000000
-0.000000 0.707107 0.707107
-0.000000 0.707107 0.707107
-0.707107 0.000000 -0.707107
-0.707107 0.000000 -0.707107
-0.707107 -0.707107 -0.000000
-0.000000 -0.707107 -0.707107
0.000000 0.707107 0.707107
0.707107 0.000000 -0.707107
-0.707107 -0.000000 0.707107
-0.000000 0.707107 -0.707107
0.707107 -0.707107 0.000000
-0.707107 0.000000 0.707107
0.000000 0.707107 -0.707107
-0.000000 -0.707107 0.707107
0.000000 -0.707107 -0.707107
-0.000000 0.707107 0.707107
0.000000 -0.707107 -0.707107
-0.000000 0.707107 0.707107
-0.707107 -0.707107 -0.000000
0.707107 0.000000 -0.707107
0.000000 0.707107 0.707107
-0.707107 -0.000000 -0.707107
0.000000 0.707107 0.707107
0.707107 -0.707107 0.000000
-0.707107 0.000000 -0.707107
0.707107 0.000000 0.707107
-0.707107 0.000000 -0.707107
0.707107 -0.000000 0.707107
-0.707107 -0.707107 -0.000000
0.707107 0.707107 0.000000
-0.707107 -0.707107 0.000000
0.707107 0.707107 -0.000000
0.707107 -0.000000 -0.707107
-0.707107 0.000000 0.707107
-0.707107 -0.000000 -0.707107
0.000000 -0.707107 0.707107
0.707107 0.707107 0.000000
-0.000000 0.707107 -0.707107
0.000000 -0.707107 0.707107
-0.000000 0.707107 -0.707107
0.000000 -0.707107 0.707107
-0.707107 -0.000000 0.707107
0.707107 0.000000 -0.707107
0.707107 0.000000 0.707107
-0.707107 -0.000000 -0.707107
0.000000 -0.707107 -0.707107
-0.000000 0.707107 0.707107
0.000000 0.707107 -0.707107
-0.000000 -0.707107 0.707107
-0.000000 0.707107 0.707107
0.000000 -0.707107 -0.707107
0.000000 -0.707107 -0.707107
-0.000000 0.707107 0.707107
-0.000000 0.707107 0.707107
0.000000 -0.707107 -0.707107
0.707107 -0.000000 0.707107
-0.707107 -0.000000 -0.707107
0.707107 0.000000 0.707107
-0.707107 -0.000000 -0.707107
0.000000 0.707107 -0.707107
-0.000000 -0.707107 0.707107
0.707107 0.000000 -0.707107
-0.707107 -0.000000 0.707107
-0.707107 -0.707107 0.000000
0.707107 0.707107 -0.000000
0.707107 0.000000 0.707107
-0.707107 -0.000000 -0.707107
0.000000 0.707107 0.707107
-0.000000 -0.707107 -0.707107
0.707107 0.707107 0.000000
-0.000000 -0.707107 -0.707107
-0.707107 0.000000 0.707107
-0.707107 -0.707107 0.000000
0.707107 0.707107 -0.000000
-0.000000 -0.707107 -0.707107
-0.000000 0.707107 0.707107
-0.707107 0.707107 0.000000
0.707107 -0.000000 0.707107
0.000000 -0.707107 -0.707107
-0.707107 -0.707107 0.000000
0.707107 0.707107 0.000000
-0.707107 0.000000 0.707107
0.707107 -0.000000 -0.707107
-0.000000 0.707107 0.707107
0.000000 -0.707107 -0.707107
-0.000000 -0.707107 0.707107
-0.707107 0.707107 0.000000
-0.707107 0.000000 0.707107
0.707107 0.000000 -0.707107
-0.707107 0.707107 -0.000000
0.707107 -0.707107 0.000000
0.707107 -0.000000 0.707107
-0.707107 0.000000 -0.707107
-0.707107 -0.707107 0.000000
0.707107 0.707107 -0.000000
-0.707107 -0.000000 -0.707107
0.707107 0.000000 0.707107
-0.000000 -0.707107 -0.707107
0.000000 0.707107 0.707107
0.000000 -0.707107 -0.707107
0.707107 0.707107 -0.000000
0.000000 -0.707107 0.707107
-0.707107 0.707107 0.000000
-0.707107 -0.707107 0.000000
0.707107 0.707107 -0.000000
0.000000 0.707107 -0.707107
-0.000000 -0.707107 0.707107
0.000000 -0.707107 0.707107
-0.000000 0.707107 -0.707107
0.000000 0.707107 -0.707107
-0.000000 -0.707107 0.707107
0.000000 -0.707107 0.707107
-0.000000 0.707107 -0.707107
0.707107 0.707107 0.000000
0.707107 0.707107 0.000000
0.000000 -0.707107 -0.707107
0.000000 -0.707107 0.707107
0.707107 -0.000000 -0.707107
-0.707107 0.707107 0.000000
-0.707107 0.000000 -0.707107
0.000000 0.707107 0.707107
0.707107 -0.707107 -0.000000
0.707107 -0.000000 -0.707107
-0.707107 0.000000 0.707107
0.707107 0.707107 0.000000
-0.707107 -0.707107 -0.000000
0.707107 -0.707107 0.000000
-0.707107 0.707107 -0.000000
0.707107 0.707107 -0.000000
-0.707107 -0.707107 0.000000
0.000000 0.707107 0.707107
-0.000000 -0.707107 -0.707107
-0.707107 -0.707107 0.000000
0.707107 -0.000000 -0.707107
0.000000 0.707107 0.707107
-0.707107 -0.707107 0.000000
0.707107 0.707107 -0.000000
0.000000 -0.707107 -0.707107
-0.000000 0.707107 0.707107
-0.707107 0.000000 -0.707107
0.707107 -0.000000 0.707107
0.707107 -0.000000 0.707107
-0.707107 0.000000 -0.707107
-0.000000 0.707107 -0.707107
0.000000 -0.707107 0.707107
0.000000 -0.707107 0.707107
-0.707107 0.000000 -0.707107