# vtk DataFile Version 3.0
Configuration exported from OpenDiS
ASCII
DATASET UNSTRUCTURED_GRID
POINTS 29612 FLOAT
-29412.000000 -29412.000000 -29412.000000
29412.000000 -29412.000000 -29412.000000
-29412.000000 29412.000000 -29412.000000
-29412.000000 -29412.000000 29412.000000
29412.000000 29412.000000 -29412.000000
29412.000000 -29412.000000 29412.000000
-29412.000000 29412.000000 29412.000000
29412.000000 29412.000000 29412.000000
-10784.447947 4708.561153 4119.304185
-11229.787223 4356.116237 3321.519993
-10784.447947 4708.561153 4119.304185
-10259.516709 5049.254630 4984.928900
-16944.290140 -22646.203540 -26.204665
-16228.063108 -23548.257518 -212.031611
-16944.290140 -22646.203540 -26.204665
-17242.651294 -23043.936597 73.167238
20293.657720 9152.028485 24883.484136
20293.657720 8648.767987 24381.409635
20293.657720 9152.028485 24883.484136
20293.657720 10394.656727 26088.071041
1904.899704 -20765.032005 4414.467399
2822.487309 -20342.976601 4909.999599
1904.899704 -20765.032005 4414.467399
1232.788317 -20897.859604 3875.183610
-28452.168959 -25184.409836 -802.289824
-28519.632325 -26270.255671 -1955.599025
-28452.168959 -25184.409836 -802.289824
-28384.473355 -24243.096459 206.719157
-29054.052565 -24954.984676 20440.083690
-29412.000003 -25506.962364 20634.113940
29411.999986 -25506.962364 20634.113940
28980.030295 -26173.087087 20868.268960
-29054.052565 -24954.984676 20440.083690
-28894.612137 -24068.201461 19712.740903
10394.742634 13831.049856 13389.775761
9459.408026 12339.058817 13946.432193
10394.742634 13831.049856 13389.775761
11028.114923 14709.517336 13144.680571
28255.262446 -8665.120399 -22585.736188
28819.805123 -8665.120399 -23159.313419
28255.262446 -8665.120399 -22585.736188
27491.237892 -8665.120399 -21853.272907
-2580.732853 -12646.285404 8661.127445
-1686.620135 -12646.285404 7767.014727
-2580.732853 -12646.285404 8661.127445
-3471.066615 -12646.285404 9551.461206
3811.475748 25638.080578 -1010.637794
4677.836388 25638.080578 -1876.998434
3811.475748 25638.080578 -1010.637794
2959.600946 25638.080578 -157.907166
-22744.761943 -11709.608905 -25857.701017
-23759.243641 -12583.620050 -25717.230464
-22744.761943 -11709.608905 -25857.701017
-21637.397507 -10494.579910 -25750.036458
5193.211729 -20808.468798 984.171040
4368.013516 -20808.468798 1825.550973
5193.211729 -20808.468798 984.171040
5775.998106 -20808.468798 409.212201
-26714.521123 -23699.404938 24946.262130
-25372.204034 -22332.098499 24971.251479
-26714.521123 -23699.404938 24946.262130
-27536.436482 -24614.794292 24852.788134
-716.931044 -3409.086539 -4522.836411
-1301.389392 -3409.086539 -5114.653764
-716.931044 -3409.086539 -4522.836411
233.720931 -3409.086539 -3571.441942
12477.475096 -18551.445545 -457.621154
12359.430532 -17954.030926 -1173.080337
12477.475096 -18551.445545 -457.621154
12460.325492 -19047.150885 20.934582
-21134.636120 -3755.366860 -15393.308506
-20805.050937 -3152.748219 -16325.512329
-21134.636120 -3755.366860 -15393.308506
-21757.243591 -4516.518714 -14009.549181
-14126.079338 -27807.431023 10900.778610
-12921.441119 -28688.244100 11224.603752
-14126.079338 -27807.431023 10900.778610
-15431.613010 -26936.902344 10465.773617
23739.317944 -21363.193901 -18728.081538
23344.168242 -21724.094747 -18693.832682
23739.317944 -21363.193901 -18728.081538
24605.504207 -21459.496561 -19497.965141
23739.317944 -21363.193901 -18728.081538
23907.945571 -20629.094650 -19293.553163
23919.492610 12728.426684 11849.860496
24724.404600 12405.039071 11368.336118
23919.492610 12728.426684 11849.860496
23132.387057 12977.916167 12387.476565
-18168.677553 9672.247816 -12125.378497
-19147.222348 9332.878772 -11486.202745
-18168.677553 9672.247816 -12125.378497
-17190.608620 10080.652462 -12695.042784
-5554.850500 28859.736598 22908.624210
-6107.113898 29411.999996 22908.624210
-6107.113898 -29411.999992 22908.624210
-6352.426765 -29166.687137 22908.624210
-5554.850500 28859.736598 22908.624210
-4846.196078 28151.082176 22908.624210
10804.963982 -8516.625863 -26733.441209
9413.863298 -9079.057063 -27562.110692
10804.963982 -8516.625863 -26733.441209
11781.293797 -8027.146207 -26246.591050
16109.487366 27444.864929 -21114.192130
17440.816489 27542.296063 -22348.090118
16109.487366 27444.864929 -21114.192130
15982.806706 27348.936348 -21083.440051
16109.487366 27444.864929 -21114.192130
14955.579855 27826.131717 -21886.832855
1311.352790 18837.874430 10733.882044
2130.915495 19673.969991 10733.882044
1311.352790 18837.874430 10733.882044
417.942870 17975.021326 10733.882044
12418.646219 -11951.046847 -22631.466037
13674.971959 -13207.372587 -22631.466037
12418.646219 -11951.046847 -22631.466037
11636.193977 -11168.594605 -22631.466037
13662.721012 20582.663910 -15917.299727
12533.649458 20044.030552 -15326.861531
13662.721012 20582.663910 -15917.299727
15068.365307 21581.277304 -16324.330627
-9925.160015 -14287.051448 7225.115949
-9176.124097 -14842.889106 7418.314209
-9925.160015 -14287.051448 7225.115949
-10627.952870 -14008.433434 6800.941109
28571.538942 -12552.559568 -23735.137795
29395.259946 -12240.502343 -24870.916024
28571.538942 -12552.559568 -23735.137795
27605.425307 -12865.476699 -22456.107029
5523.300671 16061.366814 -6285.947960
5308.182884 15484.505214 -7077.927347
5523.300671 16061.366814 -6285.947960
5671.379255 16272.414448 -5926.821742
14131.628673 -10167.891315 -20048.641478
13911.059010 -11360.274606 -21020.455107
14131.628673 -10167.891315 -20048.641478
14299.274148 -9184.857793 -19233.253432
4718.872750 -6756.116577 12078.408806
4718.872750 -5970.250176 12864.276286
4718.872750 -6756.116577 12078.408806
4718.872750 -7655.267716 11179.257667
4627.506382 -15788.860318 3445.195516
5269.652945 -16895.815481 3910.004116
4627.506382 -15788.860318 3445.195516
4446.722629 -15457.935329 3295.054280
-16796.271031 24262.056682 -15906.091654
-17449.096357 24262.056682 -16553.170719
-16796.271031 24262.056682 -15906.091654
-15904.195815 24262.056682 -15014.083663
9225.606118 -19216.745951 -5674.831439
9722.094021 -18691.212469 -5645.785861
9225.606118 -19216.745951 -5674.831439
8675.948403 -18526.915489 -5815.004187
-10593.231178 -7705.162650 13413.723186
-9559.830173 -7404.320965 12079.480497
-10593.231178 -7705.162650 13413.723186
-9795.242979 -7952.135429 13964.738542
-10593.231178 -7705.162650 13413.723186
-11627.259093 -7972.101252 14714.689703
-10593.231178 -7705.162650 13413.723186
-11489.483627 -7580.060047 12642.619283
6282.438793 11985.224262 -20314.870248
5135.228303 10430.895775 -20721.988245
6282.438793 11985.224262 -20314.870248
6864.557947 12897.574115 -19984.639549
-2706.381827 7601.198536 -16035.698428
-3063.845317 7191.167712 -15983.131094
-2706.381827 7601.198536 -16035.698428
-2001.894093 8142.874770 -15872.886927
-27572.035223 25489.167852 -22846.621940
-28600.529403 26509.931898 -22846.621940
-27572.035223 25489.167852 -22846.621940
-26620.809176 24537.965316 -22846.621940
-19166.215242 -28080.929861 3186.596554
-19900.329621 -27433.149364 1804.701679
-19166.215242 -28080.929861 3186.596554
-18346.781413 -28348.992380 4274.092903
-10150.090260 -8932.014346 -8985.509826
-9967.931983 -9951.815018 -10187.468776
-10150.090260 -8932.014346 -8985.509826
-10486.163716 -8016.869044 -7734.291069
726.237666 -1135.258915 -17181.814247
-552.580833 -1503.265779 -16271.002612
726.237666 -1135.258915 -17181.814247
1365.998690 -903.781485 -17590.097840
-9830.272447 18591.093600 18956.012132
-10318.727797 19531.067421 19407.530603
-9830.272447 18591.093600 18956.012132
-9283.431097 17478.867849 18390.627731
-18659.504777 1032.244112 -12757.820803
-18659.504777 2304.472846 -14030.049536
-18659.504777 1032.244112 -12757.820803
-18285.181218 1406.567672 -12757.820803
-18659.504777 1032.244112 -12757.820803
-17973.693181 1274.455842 -13685.844128
-19211.834811 -10525.053176 11840.302251
-19829.108916 -10254.524804 12187.047984
-19211.834811 -10525.053176 11840.302251
-17909.599058 -11095.835900 11108.849222
-12895.741725 -16042.312754 -13350.156770
-13017.264723 -15327.125159 -12513.446177
-12895.741725 -16042.312754 -13350.156770
-12860.100889 -16543.524684 -13887.009536
13628.005188 13986.831291 -20065.201944
12901.571462 13260.589811 -20065.201944
13628.005188 13986.831291 -20065.201944
14359.535453 14718.361545 -20065.201944
-23195.628156 -17595.973924 22895.016344
-22008.133885 -17404.816921 23891.353613
-23195.628156 -17595.973924 22895.016344
-22234.384366 -17711.143129 22048.941759
-20268.313356 -19517.852537 985.519061
-20102.409852 -18950.608152 1718.666951
-20268.313356 -19517.852537 985.519061
-20186.774209 -20850.444016 -265.533271
-6519.688831 -12683.107359 -23328.929340
-6519.688831 -11932.660004 -24079.376695
-6519.688831 -12683.107359 -23328.929340
-6519.688831 -13615.012009 -22391.753428
-18652.187613 6300.020983 -10318.393270
-17622.972674 6409.959858 -11237.669335
-18652.187613 6300.020983 -10318.393270
-19366.852840 6284.801407 -9618.947619
-11772.088373 -7420.340843 28001.401722
-12231.549466 -6462.321527 27502.849060
-11772.088373 -7420.340843 28001.401722
-11632.827487 -8122.085758 28563.880190
4844.529557 12819.576368 -7854.585107
4982.150075 13674.193917 -8571.582138
4844.529557 12819.576368 -7854.585107
4646.903302 11717.299823 -6949.934818
-26484.722058 17207.002735 27818.407836
-25477.333853 16645.779749 27372.242617
-26484.722058 17207.002735 27818.407836
-27355.851504 17908.308771 27988.231246
-23753.505584 14713.116026 -14631.572661
-23197.280748 14924.814189 -13863.649663
-23753.505584 14713.116026 -14631.572661
-24552.155244 14487.752198 -15655.586150
8948.898684 4978.563117 22404.094740
9749.035892 4804.066598 21429.461013
8948.898684 4978.563117 22404.094740
8948.898684 4099.754139 23282.894898
8948.898684 4978.563117 22404.094740
7857.299066 4911.414106 21379.644132
3151.212954 18456.236318 25405.391717
3465.205010 17635.424818 26540.195272
3151.212954 18456.236318 25405.391717
3104.990659 19436.930487 24378.475252
-16593.944513 17093.203230 15975.066477
[...]
CELL_DATA 14803
VECTORS Burgers FLOAT
0.000000 0.000000 0.000000
-0.707107 0.707107 0.000000
0.707107 -0.707107 -0.000000
0.707107 0.000000 0.707107
-0.707107 0.000000 -0.707107
0.000000 -0.707107 0.707107
0.000000 0.707107 -0.707107
-0.707107 0.000000 -0.707107
0.707107 0.000000 0.707107
-0.707107 0.707107 -0.000000
0.707107 -0.707107 0.000000
0.707107 0.000000 0.707107
0.707107 0.000000 0.707107
-0.707107 0.000000 -0.707107
-0.000000 0.707107 -0.707107
0.000000 -0.707107 0.707107
-0.707107 0.000000 -0.707107
0.707107 -0.000000 0.707107
-0.707107 0.000000 -0.707107
0.707107 0.000000 0.707107
-0.707107 0.000000 -0.707107
0.707107 0.000000 0.707107
-0.000000 0.707107 0.707107
0.000000 -0.707107 -0.707107
0.707107 0.000000 0.707107
-0.707107 -0.000000 -0.707107
-0.707107 -0.707107 0.000000
0.707107 0.707107 -0.000000
0.707107 -0.000000 -0.707107
-0.707107 0.000000 0.707107
-0.707107 0.000000 -0.707107
0.707107 -0.000000 0.707107
0.000000 0.707107 -0.707107
-0.000000 -0.707107 0.707107
0.707107 -0.707107 -0.000000
-0.707107 0.707107 0.000000
-0.000000 0.707107 0.707107
0.707107 -0.000000 -0.707107
-0.707107 -0.707107 -0.000000
-0.707107 0.707107 -0.000000
0.707107 -0.707107 0.000000
-0.707107 0.000000 0.707107
0.707107 -0.000000 -0.707107
-0.707107 -0.707107 -0.000000
-0.707107 -0.707107 -0.000000
0.707107 0.707107 0.000000
0.707107 0.000000 0.707107
-0.707107 -0.000000 -0.707107
-0.707107 0.000000 0.707107
0.707107 0.707107 0.000000
0.000000 -0.707107 -0.707107
0.707107 -0.707107 0.000000
-0.707107 0.707107 -0.000000
0.707107 0.707107 0.000000
-0.707107 -0.707107 -0.000000
0.000000 0.707107 0.707107
-0.000000 -0.707107 -0.707107
0.000000 0.707107 0.707107
-0.000000 -0.707107 -0.707107
0.707107 0.000000 -0.707107
-0.707107 -0.000000 0.707107
-0.707107 0.707107 -0.000000
0.707107 -0.707107 0.000000
-0.707107 -0.707107 -0.000000
0.707107 0.707107 -0.000000
-0.000000 0.707107 -0.707107
-0.000000 -0.707107 0.707107
-0.707107 0.707107 -0.000000
0.707107 -0.707107 -0.000000
0.707107 -0.000000 -0.707107
-0.707107 -0.000000 0.707107
0.707107 0.000000 -0.707107
-0.707107 0.000000 0.707107
-0.707107 0.000000 0.707107
-0.707107 0.707107 -0.000000
0.707107 -0.000000 -0.707107
0.707107 -0.707107 0.000000
-0.000000 0.707107 0.707107
0.000000 -0.707107 -0.707107
0.000000 0.707107 -0.707107
-0.000000 -0.707107 0.707107
-0.707107 -0.707107 -0.000000
0.707107 0.707107 0.000000
0.707107 -0.000000 0.707107
-0.707107 0.000000 -0.707107
0.000000 0.707107 0.707107
0.000000 -0.707107 -0.707107
-0.000000 0.707107 0.707107
0.000000 -0.707107 -0.707107
0.707107 -0.707107 0.000000
-0.707107 0.707107 -0.000000
0.707107 0.000000 0.707107
0.000000 -0.707107 -0.707107
-0.707107 0.707107 -0.000000
0.707107 -0.707107 0.000000
-0.707107 0.707107 -0.000000
-0.000000 -0.707107 -0.707107
0.000000 0.707107 0.707107
0.707107 -0.707107 0.000000
-0.707107 0.707107 -0.000000
0.000000 -0.707107 0.707107
-0.000000 0.707107 -0.707107
-0.000000 0.707107 0.707107
0.000000 -0.707107 -0.707107
-0.000000 0.707107 0.707107
-0.000000 -0.707107 -0.707107
-0.707107 -0.707107 -0.000000
0.707107 0.707107 -0.000000
0.707107 -0.000000 -0.707107
-0.707107 0.000000 0.707107
-0.707107 -0.707107 -0.000000
0.707107 0.707107 0.000000
0.000000 0.707107 -0.707107
-0.000000 -0.707107 0.707107
0.000000 -0.707107 -0.707107
-0.000000 0.707107 0.707107
-0.707107 -0.000000 0.707107
-0.000000 -0.707107 -0.707107
0.707107 0.707107 0.000000
-0.707107 0.000000 -0.707107
0.707107 -0.000000 0.707107
0.707107 -0.000000 -0.707107
-0.707107 -0.707107 0.000000
-0.000000 0.707107 0.707107
0.707107 0.707107 -0.000000
-0.707107 -0.707107 0.000000
0.000000 -0.707107 -0.707107
0.000000 -0.707107 -0.707107
-0.000000 0.707107 0.707107
-0.707107 -0.000000 0.707107
0.707107 0.000000 -0.707107
0.707107 0.707107 0.000000
-0.707107 -0.707107 -0.000000
0.707107 0.707107 0.000000
-0.707107 -0.707107 0.000000
-0.707107 0.000000 0.707107
0.707107 -0.000000 -0.707107
0.707107 0.000000 -0.707107
-0.707107 -0.000000 0.707107
-0.707107 0.000000 -0.707107
0.707107 -0.000000 0.707107
0.707107 -0.707107 0.000000
-0.707107 0.707107 0.000000
0.707107 0.000000 -0.707107
-0.707107 -0.000000 0.707107
-0.000000 0.707107 -0.707107
0.000000 -0.707107 0.707107
-0.707107 -0.707107 -0.000000
0.707107 0.707107 0.000000
0.707107 -0.000000 0.707107
0.707107 0.707107 -0.000000
-0.707107 0.000000 -0.707107
-0.707107 0.000000 -0.707107
-0.707107 -0.707107 0.000000
-0.707107 -0.707107 0.000000
0.707107 -0.000000 0.707107
-0.707107 -0.000000 -0.707107
-0.000000 -0.707107 -0.707107
-0.000000 0.707107 0.707107
0.707107 -0.707107 0.000000
-0.707107 0.707107 -0.000000
-0.707107 0.707107 -0.000000
-0.000000 -0.707107 0.707107
0.707107 0.707107 0.000000
-0.707107 0.000000 -0.707107
0.707107 0.707107 -0.000000
-0.707107 -0.707107 0.000000
0.000000 0.707107 0.707107
-0.000000 -0.707107 -0.707107
0.707107 -0.707107 0.000000
-0.707107 0.707107 -0.000000
-0.707107 -0.707107 0.000000
0.707107 0.707107 0.000000
-0.707107 0.707107 -0.000000
0.707107 -0.707107 0.000000
-0.707107 -0.000000 -0.707107
0.707107 -0.000000 0.707107
0.707107 0.707107 0.000000
-0.707107 0.000000 0.707107
0.000000 -0.707107 -0.707107
0.707107 -0.000000 -0.707107
-0.707107 -0.000000 0.707107
0.707107 -0.000000 -0.707107
0.000000 0.707107 0.707107
-0.707107 -0.707107 0.000000
-0.707107 0.000000 -0.707107
0.707107 -0.000000 0.707107
-0.707107 -0.000000 0.707107
0.707107 -0.000000 -0.707107
-0.707107 -0.000000 0.707107
0.707107 0.000000 -0.707107
-0.707107 0.000000 0.707107
0.707107 -0.000000 -0.707107
-0.707107 -0.707107 -0.000000
0.707107 0.707107 -0.000000
-0.707107 0.707107 0.000000
0.707107 -0.707107 0.000000
0.707107 -0.000000 0.707107
-0.707107 0.000000 -0.707107
-0.707107 -0.707107 -0.000000
0.707107 0.707107 -0.000000
-0.000000 0.707107 0.707107
0.000000 -0.707107 -0.707107
0.707107 -0.000000 0.707107
-0.707107 0.000000 -0.707107
0.707107 -0.707107 0.000000
-0.707107 0.707107 -0.000000
0.707107 -0.707107 0.000000
0.000000 0.707107 -0.707107
-0.707107 -0.707107 -0.000000
-0.000000 0.707107 0.707107
-0.707107 -0.707107 0.000000
0.707107 0.707107 0.000000
0.000000 -0.707107 -0.707107
-0.000000 0.707107 0.707107
0.707107 -0.707107 0.000000
-0.707107 0.707107 -0.000000
0.000000 0.707107 0.707107
-0.000000 -0.707107 -0.707107
-0.707107 0.000000 0.707107
0.707107 -0.000000 -0.707107
-0.707107 -0.000000 -0.707107
0.707107 0.000000 0.707107
-0.707107 0.707107 -0.000000
0.707107 -0.707107 0.000000
0.000000 -0.707107 0.707107
-0.000000 0.707107 -0.707107
-0.000000 0.707107 -0.707107
0.707107 -0.000000 0.707107
-0.707107 -0.000000 -0.707107
0.707107 0.000000 0.707107
-0.707107 -0.000000 -0.707107
0.707107 0.000000 -0.707107
-0.707107 0.000000 0.707107
-0.707107 -0.707107 -0.000000
0.707107 0.707107 -0.000000
-0.707107 0.000000 0.707107
0.707107 -0.000000 -0.707107
0.707107 0.000000 0.707107
-0.707107 -0.000000 -0.707107
0.707107 0.707107 -0.000000
-0.707107 -0.707107 -0.000000
0.707107 -0.707107 0.000000
-0.707107 0.707107 0.000000
-0.707107 -0.000000 0.707107
0.707107 0.000000 -0.707107
1.414214 0.000000 0.000000
-1.414214 -0.000000 -0.000000
0.707107 0.707107 0.000000
-0.707107 -0.707107 -0.000000
-0.707107 0.000000 -0.707107
0.707107 0.000000 0.707107
0.707107 -0.707107 -0.000000
-0.707107 0.707107 -0.000000
0.707107 -0.000000 0.707107
-0.707107 -0.000000 -0.707107
-0.707107 -0.707107 0.000000
0.707107 0.707107 -0.000000
-0.707107 -0.707107 0.000000
0.707107 0.707107 -0.000000
-0.707107 0.000000 0.707107
0.707107 -0.000000 -0.707107
-0.707107 -0.000000 -0.707107
0.707107 0.000000 0.707107
0.000000 0.707107 -0.707107
-0.000000 -0.707107 0.707107
0.707107 0.707107 0.000000
-0.707107 -0.707107 0.000000
-0.707107 0.000000 -0.707107
0.707107 -0.000000 -0.707107
-0.707107 0.000000 0.707107
-0.000000 0.707107 -0.707107
0.000000 -0.707107 0.707107
-0.707107 -0.707107 -0.000000
0.707107 0.707107 -0.000000
-0.707107 0.707107 -0.000000
0.707107 -0.707107 -0.000000
0.707107 -0.707107 -0.000000
-0.707107 0.707107 0.000000
0.707107 0.000000 -0.707107
-0.707107 -0.000000 0.707107
-0.707107 -0.000000 0.707107
0.707107 0.000000 -0.707107
-0.707107 -0.707107 -0.000000
0.707107 0.707107 -0.000000
0.000000 -0.707107 0.707107
0.000000 0.707107 -0.707107
0.707107 0.000000 0.707107
-0.707107 -0.000000 -0.707107
-0.000000 -0.707107 -0.707107
-0.000000 0.707107 0.707107
0.707107 -0.000000 0.707107
-0.707107 0.000000 -0.707107
0.000000 -0.707107 0.707107
-0.707107 -0.000000 -0.707107
0.707107 0.707107 0.000000
-0.707107 -0.000000 -0.707107
0.000000 -0.707107 0.707107
0.707107 0.707107 0.000000
0.707107 -0.707107 0.000000
-0.707107 0.707107 -0.000000
-0.707107 -0.707107 0.000000
0.707107 0.000000 0.707107
0.000000 0.707107 -0.707107
0.707107 -0.707107 -0.000000
0.000000 0.707107 -0.707107
-0.707107 0.000000 0.707107
0.707107 -0.000000 0.707107
-0.707107 0.000000 -0.707107
0.000000 0.707107 0.707107
0.000000 -0.707107 -0.707107
-0.707107 -0.707107 -0.000000
0.707107 0.000000 0.707107
0.000000 0.707107 -0.707107
0.707107 0.707107 -0.000000
-0.707107 -0.707107 0.000000
0.707107 0.000000 -0.707107
0.707107 0.000000 -0.707107
-0.000000 0.707107 -0.707107
0.000000 -0.707107 0.707107
-0.707107 0.000000 -0.707107
-0.707107 0.000000 -0.707107
0.000000 -0.000000 1.414214
-0.707107 0.707107 0.000000
0.707107 0.000000 -0.707107
0.000000 -0.707107 0.707107
-0.000000 -0.707107 -0.707107
-0.000000 0.707107 0.707107
0.707107 0.707107 0.000000
-0.707107 -0.707107 0.000000
-0.707107 0.000000 -0.707107
0.000000 -0.707107 0.707107
0.707107 0.707107 -0.000000
-0.000000 -0.707107 -0.707107
0.000000 0.707107 0.707107
-0.000000 -0.707107 -0.707107
0.000000 0.707107 0.707107
0.707107 0.000000 -0.707107
-0.707107 -0.000000 0.707107
0.000000 0.707107 0.707107
0.000000 -0.707107 -0.707107
0.000000 0.707107 0.707107
-0.000000 -0.707107 -0.707107
0.707107 -0.000000 0.707107
-0.707107 0.000000 -0.707107
-0.000000 0.707107 0.707107
0.000000 -0.707107 -0.707107
0.000000 0.707107 0.707107
-0.000000 -0.707107 -0.707107
0.000000 0.707107 0.707107
-0.000000 -0.707107 -0.707107
0.707107 0.000000 -0.707107
-0.707107 0.000000 0.707107
0.000000 0.707107 0.707107
-0.000000 -0.707107 -0.707107
-0.707107 -0.707107 -0.000000
0.707107 0.707107 -0.000000
-0.000000 0.707107 0.707107
-0.000000 -0.707107 -0.707107
-0.707107 0.707107 -0.000000
0.707107 -0.707107 0.000000
0.000000 -0.707107 -0.707107
-0.000000 0.707107 0.707107
0.707107 0.000000 -0.707107
-0.707107 -0.000000 0.707107
-0.707107 0.000000 0.707107
0.707107 -0.000000 -0.707107
0.707107 0.707107 0.000000
-0.707107 -0.707107 -0.000000
-0.707107 -0.707107 -0.000000
-0.000000 -0.707107 0.707107
0.000000 0.707107 -0.707107
0.000000 -0.707107 -0.707107
0.000000 0.707107 0.707107
-0.000000 -0.707107 0.707107
0.000000 0.707107 -0.707107
-0.707107 -0.000000 -0.707107
0.707107 -0.000000 0.707107
-0.000000 0.707107 -0.707107
-0.707107 -0.707107 -0.000000
0.707107 0.000000 0.707107
0.707107 -0.707107 0.000000
-0.707107 0.707107 -0.000000
0.707107 0.000000 0.707107
-0.707107 0.000000 -0.707107
-0.707107 0.707107 0.000000
-0.707107 0.707107 0.000000
0.707107 -0.707107 0.000000
-0.707107 0.707107 -0.000000
0.707107 -0.707107 0.000000
-0.707107 -0.000000 -0.707107
0.707107 0.000000 0.707107
-0.707107 0.000000 -0.707107
0.000000 0.707107 0.707107
-0.000000 -0.707107 -0.707107
0.707107 -0.707107 0.000000
-0.707107 0.707107 -0.000000
0.000000 -0.707107 -0.707107
0.000000 -0.707107 -0.707107
-0.000000 0.707107 0.707107
0.000000 -0.707107 -0.707107
-0.000000 0.707107 0.707107
0.707107 -0.707107 -0.000000
-0.707107 0.707107 0.000000
0.707107 0.707107 0.000000
0.707107 0.707107 0.000000
-0.707107 -0.707107 -0.000000
-0.000000 -0.707107 -0.707107
-0.000000 0.707107 0.707107
0.707107 -0.000000 0.707107
0.000000 0.707107 -0.707107
-0.707107 -0.707107 0.000000
-0.707107 0.707107 0.000000
0.707107 -0.707107 -0.000000
-0.000000 0.707107 0.707107
0.000000 -0.707107 -0.707107
0.000000 0.707107 0.707107
-0.707107 -0.707107 0.000000
0.707107 0.000000 -0.707107
0.707107 0.000000 0.707107
-0.707107 -0.000000 -0.707107
-0.707107 0.000000 0.707107
0.707107 -0.000000 -0.707107
0.000000 0.707107 0.707107
-0.000000 -0.707107 -0.707107
-0.707107 -0.707107 0.000000
0.707107 0.707107 -0.000000
0.707107 -0.707107 0.000000
-0.707107 0.707107 -0.000000
0.000000 -0.707107 0.707107
-0.707107 -0.000000 -0.707107
0.000000 0.707107 0.707107
0.707107 0.000000 -0.707107
-0.707107 -0.707107 0.000000
0.707107 0.707107 -0.000000
0.707107 -0.000000 0.707107
-0.707107 0.000000 -0.707107
-0.707107 0.707107 -0.000000
0.707107 0.000000 0.707107
0.000000 -0.707107 -0.707107
-0.707107 -0.707107 0.000000
0.707107 0.707107 -0.000000
0.707107 -0.707107 -0.000000
-0.707107 0.707107 0.000000
-0.707107 -0.707107 0.000000
0.707107 0.707107 -0.000000
0.000000 0.707107 0.707107
-0.000000 -0.707107 -0.707107
0.707107 0.707107 -0.000000
-0.707107 -0.707107 0.000000
0.707107 0.707107 -0.000000
-0.707107 -0.707107 0.000000
-0.000000 0.707107 -0.707107
0.000000 -0.707107 0.707107
0.707107 0.000000 0.707107
-0.707107 -0.000000 -0.707107
-0.000000 -0.707107 -0.707107
0.000000 0.707107 0.707107
0.707107 0.707107 -0.000000
-0.707107 -0.707107 0.000000
0.000000 -0.707107 0.707107
-0.000000 0.707107 -0.707107
-0.707107 0.707107 0.000000
-0.707107 0.707107 0.000000
0.707107 -0.707107 -0.000000
-0.707107 -0.707107 0.000000
0.707107 0.707107 -0.000000
0.000000 0.707107 -0.707107
-0.000000 -0.707107 0.707107
0.000000 -0.707107 0.707107
0.000000 0.707107 -0.707107
-0.000000 -0.707107 -0.707107
0.707107 0.707107 0.000000
-0.707107 0.000000 0.707107
-0.000000 -0.707107 -0.707107
0.000000 0.707107 0.707107
-0.707107 0.000000 -0.707107
0.707107 -0.000000 0.707107
-0.000000 -0.707107 -0.707107
0.000000 0.707107 0.707107
-0.000000 0.707107 0.707107
-0.000000 -0.707107 -0.707107
-0.707107 0.000000 -0.707107
0.707107 -0.000000 0.707107
0.000000 0.707107 -0.707107
-0.000000 -0.707107 0.707107
-0.707107 0.000000 -0.707107
-0.707107 0.000000 -0.707107
0.707107 -0.000000 0.707107
-0.707107 -0.000000 -0.707107
0.707107 -0.000000 0.707107
0.000000 -0.707107 0.707107
-0.000000 0.707107 -0.707107
-0.000000 0.707107 0.707107
-0.000000 -0.707107 -0.707107
-0.707107 0.000000 0.707107
0.707107 0.000000 0.707107
-0.707107 -0.000000 -0.707107
0.707107 -0.000000 -0.707107
-0.707107 0.707107 0.000000
0.000000 -0.707107 0.707107
0.707107 0.000000 -0.707107
-0.000000 -0.707107 -0.707107
0.000000 0.707107 0.707107
0.000000 0.707107 0.707107
0.707107 0.707107 0.000000
-0.707107 -0.707107 -0.000000
0.000000 0.707107 -0.707107
-0.000000 -0.707107 0.707107
-0.707107 -0.707107 0.000000
0.707107 0.707107 -0.000000
0.707107 0.707107 0.000000
-0.707107 -0.707107 -0.000000
0.707107 0.707107 -0.000000
-0.707107 -0.707107 -0.000000
0.000000 0.707107 0.707107
-0.000000 -0.707107 -0.707107
0.000000 -0.707107 0.707107
0.000000 0.707107 -0.707107
-0.000000 -0.707107 0.707107
0.000000 0.707107 -0.707107
0.707107 -0.000000 -0.707107
-0.707107 -0.000000 0.707107
-0.000000 -0.707107 -0.707107
0.000000 0.707107 0.707107
0.000000 0.707107 0.707107
0.000000 -0.707107 -0.707107
0.707107 -0.707107 -0.000000
-0.000000 0.707107 -0.707107
-0.707107 -0.000000 0.707107
0.000000 -0.707107 -0.707107
-0.000000 0.707107 0.707107
-0.707107 -0.000000 0.707107
0.707107 0.000000 -0.707107
0.000000 -0.707107 -0.707107
-0.000000 0.707107 0.707107
-0.707107 -0.707107 0.000000
0.707107 0.707107 -0.000000
-0.707107 0.000000 -0.707107
0.707107 -0.000000 0.707107
-0.707107 -0.000000 0.707107
0.707107 0.000000 -0.707107
-0.000000 -0.707107 -0.707107
0.000000 0.707107 0.707107
0.000000 -0.707107 -0.707107
-0.000000 0.707107 0.707107
0.000000 0.707107 -0.707107
-0.000000 -0.707107 0.707107
0.707107 0.000000 0.707107
-0.707107 -0.000000 -0.707107
-0.707107 0.000000 -0.707107
0.707107 0.000000 0.707107
0.707107 0.000000 0.707107
-0.707107 -0.000000 -0.707107
0.000000 -0.707107 -0.707107
-0.000000 0.707107 0.707107
-0.707107 0.000000 -0.707107
-0.707107 0.000000 -0.707107
0.707107 -0.000000 0.707107
0.707107 -0.000000 0.707107
0.707107 0.707107 -0.000000
-0.707107 -0.707107 0.000000
-0.707107 0.000000 -0.707107
-0.000000 0.707107 0.707107
0.707107 -0.707107 0.000000
0.707107 0.000000 0.707107
-0.707107 -0.000000 -0.707107
-0.000000 0.707107 0.707107
-0.000000 0.707107 0.707107
0.000000 -0.707107 -0.707107
-0.000000 0.707107 -0.707107
0.000000 -0.707107 0.707107
-0.707107 -0.707107 0.000000
0.707107 0.707107 -0.000000
0.707107 -0.000000 -0.707107
-0.707107 0.000000 0.707107
0.707107 -0.707107 -0.000000
-0.707107 0.707107 -0.000000
-0.707107 0.000000 -0.707107
0.000000 -0.707107 0.707107
0.707107 0.707107 -0.000000
-0.000000 0.707107 0.707107
0.000000 -0.707107 -0.707107
-0.707107 0.000000 -0.707107
0.707107 -0.000000 0.707107
-0.707107 -0.000000 0.707107
0.707107 0.000000 -0.707107
0.707107 0.000000 -0.707107
-0.707107 0.707107 0.000000
0.707107 -0.707107 0.000000
0.000000 0.707107 0.707107
-0.000000 -0.707107 -0.707107
0.707107 -0.000000 -0.707107
-0.707107 0.000000 0.707107
0.707107 -0.000000 -0.707107
-0.707107 0.000000 0.707107
0.000000 0.707107 -0.707107
-0.000000 -0.707107 0.707107
0.000000 0.707107 0.707107
-0.707107 -0.000000 -0.707107
0.707107 -0.707107 0.000000
0.707107 0.000000 0.707107
-0.707107 -0.000000 -0.707107
0.707107 -0.707107 0.000000
-0.707107 0.707107 -0.000000
-0.000000 -0.707107 -0.707107
-0.000000 0.707107 0.707107
0.707107 0.000000 0.707107
-0.707107 -0.000000 -0.707107
0.707107 0.707107 -0.000000
-0.707107 -0.707107 -0.000000
0.000000 0.707107 -0.707107
-0.000000 -0.707107 0.707107
0.707107 -0.000000 -0.707107
-0.707107 0.000000 0.707107
0.707107 0.707107 -0.000000
-0.707107 -0.707107 0.000000
0.707107 -0.707107 0.000000
-0.707107 0.707107 -0.000000
0.000000 -0.707107 0.707107
-0.000000 0.707107 -0.707107
0.000000 0.707107 -0.707107
-0.000000 -0.707107 0.707107
0.707107 0.000000 0.707107
-0.707107 -0.000000 -0.707107
0.707107 -0.707107 0.000000
-0.707107 0.707107 -0.000000
0.000000 -0.707107 -0.707107
0.000000 0.707107 0.707107
0.707107 0.000000 0.707107
-0.707107 0.000000 -0.707107
-0.707107 0.707107 0.000000
0.707107 -0.707107 -0.000000
-0.707107 -0.000000 -0.707107
0.707107 0.000000 0.707107
0.707107 -0.707107 -0.000000
-0.707107 -0.000000 0.707107
0.000000 0.707107 -0.707107
0.707107 0.707107 0.000000
-0.707107 -0.707107 -0.000000
-0.707107 0.707107 0.000000
0.707107 -0.707107 -0.000000
-0.000000 -0.707107 0.707107
0.000000 0.707107 -0.707107
0.707107 0.000000 0.707107
-0.707107 -0.000000 -0.707107
0.000000 0.707107 0.707107
-0.000000 -0.707107 -0.707107
-0.000000 0.707107 -0.707107
0.000000 -0.707107 0.707107
0.707107 0.000000 -0.707107
-0.707107 -0.000000 0.707107
0.707107 0.707107 0.000000
-0.707107 -0.707107 -0.000000
-0.000000 -0.707107 -0.707107
0.000000 0.707107 0.707107
-0.707107 -0.000000 -0.707107
0.707107 -0.000000 0.707107
0.707107 -0.000000 0.707107
0.707107 -0.000000 0.707107
-0.707107 0.000000 -0.707107
-0.707107 -0.707107 -0.000000
0.707107 0.707107 -0.000000
-0.707107 0.000000 -0.707107
0.707107 -0.000000 0.707107
0.707107 0.000000 0.707107
-0.707107 -0.000000 -0.707107
0.000000 -0.707107 -0.707107
-0.000000 0.707107 0.707107
0.707107 0.000000 0.707107
-0.707107 -0.000000 -0.707107
-0.000000 0.707107 0.707107
-0.707107 -0.000000 -0.707107
0.707107 -0.707107 -0.000000
0.000000 -0.707107 0.707107
-0.000000 0.707107 -0.707107
-0.707107 0.000000 -0.707107
0.000000 0.707107 0.707107
0.707107 -0.707107 0.000000
-0.707107 -0.707107 0.000000
0.707107 0.707107 -0.000000
-0.000000 -0.707107 0.707107
-0.000000 0.707107 -0.707107
0.000000 -0.707107 -0.707107
0.000000 0.707107 0.707107
0.000000 -0.707107 -0.707107
-0.000000 0.707107 0.707107
0.000000 -0.707107 0.707107
0.000000 -0.707107 0.707107
-0.000000 0.707107 -0.707107
-0.707107 -0.707107 0.000000
0.000000 0.707107 -0.707107
0.707107 -0.000000 0.707107
0.707107 -0.000000 0.707107
-0.707107 0.000000 -0.707107
-0.707107 0.000000 0.707107
0.707107 -0.000000 -0.707107
-0.707107 -0.000000 -0.707107
0.707107 0.000000 0.707107
0.707107 -0.707107 0.000000