# vtk DataFile Version 3.0
Configuration exported from OpenDiS
ASCII
DATASET UNSTRUCTURED_GRID
POINTS 55240 FLOAT
-29412.000000 -29412.000000 -29412.000000
29412.000000 -29412.000000 -29412.000000
-29412.000000 29412.000000 -29412.000000
-29412.000000 -29412.000000 29412.000000
29412.000000 29412.000000 -29412.000000
29412.000000 -29412.000000 29412.000000
-29412.000000 29412.000000 29412.000000
29412.000000 29412.000000 29412.000000
20978.677306 2816.965510 4605.808833
20996.610711 2851.252983 4589.454765
20978.677306 2816.965510 4605.808833
20157.522470 2686.267624 5296.265783
-9891.706914 -2370.281443 26248.105466
-10440.600363 -1821.387994 26248.105466
-9891.706914 -2370.281443 26248.105466
-10349.609329 -2645.578546 26430.710778
29246.011471 -5788.381264 -20919.138837
29411.999997 -5788.381264 -20753.150310
-29411.999991 -5788.381264 -20753.150310
-29192.450330 -5788.381264 -20533.600638
29246.011471 -5788.381264 -20919.138837
28614.764891 -5788.381264 -21550.385417
-9176.044249 -23195.496740 16733.065779
-9017.687592 -23303.843445 16683.055827
-9176.044249 -23195.496740 16733.065779
-9215.371242 -23170.477024 16708.046063
-9176.044249 -23195.496740 16733.065779
-9168.235965 -23200.772280 16746.149604
-14996.265282 13.751864 -16513.496387
-16107.933923 1125.420505 -16513.496387
-14996.265282 13.751864 -16513.496387
-14258.203345 45.130461 -15806.813047
-18312.022640 -14220.264457 -22588.788792
-18124.440362 -13437.880786 -23183.590185
-18312.022640 -14220.264457 -22588.788792
-18193.334600 -14876.723989 -21813.641221
23752.682258 23373.599572 -13229.873877
23340.434986 23785.413492 -13229.134491
23752.682258 23373.599572 -13229.873877
24035.369289 23091.614451 -13230.228575
13839.217672 1840.122118 14148.366341
13711.254223 2269.341192 14449.621960
13839.217672 1840.122118 14148.366341
14303.102245 1109.695834 13881.826638
-6175.343614 -20996.044120 -20845.763973
-5270.026525 -21138.267347 -21893.304289
-6175.343614 -20996.044120 -20845.763973
-6884.577592 -21019.371362 -20159.857237
-24299.945217 -22386.684665 23844.406497
-24388.538701 -22458.232594 23861.452053
-24299.945217 -22386.684665 23844.406497
-23916.232987 -22002.972435 23844.406497
-24299.945217 -22386.684665 23844.406497
-24261.682081 -22766.608871 24262.593839
-23608.614648 792.477883 -17467.211846
-23608.615388 1431.261422 -18111.049234
-23608.614648 792.477883 -17467.211846
-23608.613821 57.795917 -16741.688207
-26370.714886 -2981.762239 -24892.431085
-27405.366818 -3442.477887 -25466.367368
-26370.714886 -2981.762239 -24892.431085
-25120.858742 -2558.842363 -24065.494817
15822.351994 21048.503731 -8431.937193
15031.268252 21048.503731 -7640.853451
15822.351994 21048.503731 -8431.937193
16180.325630 21048.503731 -8789.910829
274.566871 21916.519148 -14414.527094
302.952039 21867.929163 -14394.322277
274.566871 21916.519148 -14414.527094
-591.553807 21859.598196 -13491.485464
274.566871 21916.519148 -14414.527094
460.554980 21499.855214 -15017.179137
-12325.679429 249.054764 20885.608120
-11621.101125 -1158.713445 21588.798024
-12325.679429 249.054764 20885.608120
-12609.384444 793.366330 20625.001569
-26102.970278 23205.076598 -20950.208726
-25703.369795 23649.504092 -20106.180749
-26102.970278 23205.076598 -20950.208726
-26418.315618 22952.527515 -21013.004983
-9008.280707 -22071.747585 -25988.030155
-8185.341470 -21446.137854 -26185.359662
-9008.280707 -22071.747585 -25988.030155
-10326.506815 -23066.333883 -25664.390346
9178.361678 -22413.990448 1211.602186
9191.809331 -22966.886375 672.153912
9178.361678 -22413.990448 1211.602186
9170.325278 -21998.246875 1619.309359
28812.927566 9969.899997 2494.191016
29109.891246 9827.540248 2648.794947
28812.927566 9969.899997 2494.191016
28320.995214 10204.461096 2236.819764
-25476.640582 -17677.402296 28589.983872
-24697.593435 -17677.402296 27764.287317
-25476.640582 -17677.402296 28589.983872
-25967.827109 -17677.402296 29030.325096
-14960.412353 14764.386347 -23567.977688
-15484.558976 14107.674735 -23700.542677
-14960.412353 14764.386347 -23567.977688
-15241.636851 15209.054300 -23404.527130
26491.614753 6924.039870 3987.620189
25245.280223 6896.267281 5206.182130
26491.614753 6924.039870 3987.620189
27448.240903 7391.236072 3498.190242
-22232.772994 -1788.625244 -14826.454116
-21363.547578 -1788.625244 -15695.679532
-22232.772994 -1788.625244 -14826.454116
-22675.969677 -1845.551987 -14326.330690
-22232.772994 -1788.625244 -14826.454116
-22977.231085 -1455.474331 -15239.989064
3291.998630 4317.363315 22956.510631
3031.274637 4745.905302 23645.776611
3291.998630 4317.363315 22956.510631
3540.560936 3817.435781 22208.021002
-14719.905732 10176.822069 13352.067117
-14064.308539 9071.865639 13801.426355
-14719.905732 10176.822069 13352.067117
-15154.320347 10836.190771 13127.113031
-1459.520799 -18795.978394 28624.144390
-493.417702 -18956.937098 27497.082578
-1459.520799 -18795.978394 28624.144390
-2150.922969 -18699.524958 29411.999996
-2150.922969 -18699.524958 -29411.999992
-2565.649473 -18641.668911 -28939.417453
9321.865992 19649.730960 -11720.778472
9999.789824 19508.101262 -12257.072607
9321.865992 19649.730960 -11720.778472
8322.762585 19906.989312 -10978.933417
-23646.485652 -18012.870873 29048.866831
-23780.650729 -17708.410401 28610.241282
-23646.485652 -18012.870873 29048.866831
-23673.067332 -17907.208647 29127.947376
-23646.485652 -18012.870873 29048.866831
-23639.812720 -18029.114855 29058.437882
8632.265394 -11884.096549 -26193.059606
7900.017134 -11055.632878 -26289.189723
8632.265394 -11884.096549 -26193.059606
9531.415793 -12379.367952 -26596.938601
19028.472233 14991.252081 6907.689367
17830.594773 15399.549071 7697.269838
19028.472233 14991.252081 6907.689367
18092.745111 14189.307085 6773.907242
19028.472233 14991.252081 6907.689367
20071.768180 13947.956134 6907.689367
-9746.365096 185.581173 -27642.383073
-9178.949251 489.320522 -27378.706577
-9746.365096 185.581173 -27642.383073
-10443.044365 -81.612548 -28071.868620
4349.154217 14611.798604 -1229.081216
4133.285299 14024.052954 -857.204483
4349.154217 14611.798604 -1229.081216
5092.929490 15997.658695 -1871.166034
-14408.188540 16769.176751 9936.184831
-14408.188540 16360.607072 10344.767578
-14408.188540 16769.176751 9936.184831
-14408.188540 17166.427430 9533.028716
13193.293624 -6576.732502 -912.330056
14293.901311 -6810.412323 -2246.617706
13193.293624 -6576.732502 -912.330056
12423.703582 -6415.451910 18.540643
1630.076786 13201.562985 14548.821753
1785.781822 13513.412805 14081.266896
1630.076786 13201.562985 14548.821753
1479.790197 12826.191220 15074.480109
5682.561318 -9380.037246 -25747.073658
6242.519305 -10182.750887 -25504.488591
5682.561318 -9380.037246 -25747.073658
5367.959412 -8337.306116 -26474.861707
-16981.001675 -22111.358626 -11950.333771
-16395.981760 -22111.358626 -12540.087444
-16981.001675 -22111.358626 -11950.333771
-17735.049953 -22111.369761 -11196.321414
-27154.877046 24815.303077 -13678.324315
-28712.302900 24113.626562 -12822.567648
-27154.877046 24815.303077 -13678.324315
-26020.742391 25385.726142 -14242.039603
-25164.791012 5116.222110 9722.348691
-26041.672154 4728.408081 9233.281578
-25164.791012 5116.222110 9722.348691
-24334.988982 5662.260080 10006.112752
-25164.791012 5116.222110 9722.348691
-24721.922180 4759.721045 9635.980925
-25164.791012 5116.222110 9722.348691
-25326.594802 5322.070315 9678.304275
13855.194378 -23601.719703 -28573.656829
13115.971350 -22169.088237 -29267.065268
13855.194378 -23601.719703 -28573.656829
12748.568079 -24307.337813 -28974.665019
13855.194378 -23601.719703 -28573.656829
14489.867374 -23229.029063 -28319.538833
13855.194378 -23601.719703 -28573.656829
14333.069248 -24210.838506 -28442.412896
-29240.994203 -26845.698498 26641.801940
-28945.869403 -27446.256693 26948.587646
-29240.994203 -26845.698498 26641.801940
-29412.000001 -26760.079349 26727.188589
29411.999987 -26760.079349 26727.188589
28889.488291 -26498.468291 26988.089240
-29240.994203 -26845.698498 26641.801940
-28901.364480 -26499.137763 25955.611483
-18120.531619 -27601.244074 3372.113880
-17043.938526 -27136.987448 2759.777412
-18120.531619 -27601.244074 3372.113880
-19301.650375 -28416.023003 3738.447226
-18120.531619 -27601.244074 3372.113880
-17970.419629 -28233.872188 3854.630003
-18120.531619 -27601.244074 3372.113880
-18310.771874 -26483.126331 2444.236392
-18120.531619 -27601.244074 3372.113880
-18226.071618 -27349.168867 3518.649088
-17515.919034 9552.091643 27634.875927
-16654.130298 9278.478060 26499.473609
-17515.919034 9552.091643 27634.875927
-18419.489100 9704.641197 28690.995548
-146.344578 15028.702065 -8241.118555
-1021.643291 14695.140175 -8782.855379
-146.344578 15028.702065 -8241.118555
700.876321 15411.759631 -7776.955223
-21028.591628 -4844.638404 19307.339220
-22188.025263 -3947.370659 19569.505109
-21028.591628 -4844.638404 19307.339220
-20624.183363 -5226.036527 19284.329078
-55.061348 -20380.690462 18084.141173
-55.061376 -20822.319479 17634.559628
-55.061348 -20380.690462 18084.141173
-55.061344 -20039.137642 18427.475641
13317.818622 7593.295784 14758.086009
13813.285082 8327.627555 14519.220698
13317.818622 7593.295784 14758.086009
12430.490526 6697.800915 14766.252783
-370.662201 -7341.823960 23998.049928
-976.942762 -6246.656304 24486.937023
-370.662201 -7341.823960 23998.049928
-79.887192 -7438.920608 23610.178271
20157.368755 11723.100399 14333.252274
20306.247587 11908.418148 14369.691191
20157.368755 11723.100399 14333.252274
19857.274896 11294.929646 14205.175380
20157.368755 11723.100399 14333.252274
19845.365045 12035.104391 14333.252274
20157.368755 11723.100399 14333.252274
20871.836986 11008.668340 14333.252274
-9814.991816 24717.577173 27707.845166
-10187.649244 25394.194458 28757.119879
-9814.991816 24717.577173 27707.845166
-8437.087868 23709.302635 28077.474577
-9814.991816 24717.577173 27707.845166
-11159.608589 26002.093058 27647.744279
-9814.991816 24717.577173 27707.845166
-9725.226188 24415.750623 27316.252988
[...]
CELL_DATA 27617
VECTORS Burgers FLOAT
0.000000 0.000000 0.000000
0.707107 0.707107 0.000000
-0.707107 -0.707107 0.000000
-0.707107 -0.707107 -0.000000
0.707107 0.707107 0.000000
-0.707107 -0.000000 0.707107
-0.707107 -0.000000 0.707107
0.707107 0.000000 -0.707107
-0.707107 0.000000 0.707107
1.414214 -0.000000 -0.000000
-0.707107 -0.000000 -0.707107
0.707107 0.707107 0.000000
-0.707107 -0.707107 0.000000
0.000000 -0.707107 0.707107
-0.000000 0.707107 -0.707107
-0.707107 -0.707107 0.000000
0.707107 0.707107 -0.000000
-0.707107 0.000000 -0.707107
0.707107 -0.000000 0.707107
0.000000 0.707107 0.707107
-0.000000 -0.707107 -0.707107
-0.707107 -0.707107 0.000000
0.707107 0.000000 0.707107
-0.000000 0.707107 -0.707107
-0.000000 0.707107 0.707107
0.000000 -0.707107 -0.707107
-0.707107 0.000000 -0.707107
0.707107 -0.000000 0.707107
-0.707107 0.000000 -0.707107
0.707107 -0.000000 0.707107
0.000000 0.707107 -0.707107
0.707107 -0.707107 0.000000
-0.707107 -0.000000 0.707107
0.707107 -0.707107 0.000000
-0.707107 0.707107 -0.000000
0.707107 0.000000 0.707107
-0.707107 0.000000 -0.707107
0.707107 0.000000 -0.707107
-0.707107 -0.000000 0.707107
-0.707107 0.707107 0.000000
0.707107 -0.707107 -0.000000
-0.707107 0.707107 0.000000
0.707107 -0.707107 -0.000000
0.707107 0.000000 0.707107
-0.707107 -0.000000 -0.707107
0.000000 0.707107 0.707107
0.000000 -0.707107 -0.707107
-0.000000 0.707107 0.707107
0.000000 -0.707107 -0.707107
-0.707107 -0.000000 -0.707107
0.707107 -0.707107 0.000000
-0.000000 0.707107 0.707107
0.707107 0.000000 -0.707107
-0.707107 -0.000000 0.707107
0.707107 -0.707107 0.000000
-0.707107 0.707107 -0.000000
-0.707107 0.000000 0.707107
0.707107 -0.000000 -0.707107
0.707107 -0.000000 -0.707107
-0.707107 0.707107 -0.000000
0.707107 -0.707107 0.000000
0.707107 -0.000000 0.707107
0.000000 -0.707107 -0.707107
-0.707107 0.707107 -0.000000
0.000000 -0.707107 0.707107
-0.000000 0.707107 -0.707107
0.707107 0.000000 -0.707107
-0.707107 -0.707107 -0.000000
-0.000000 0.707107 0.707107
-0.707107 0.000000 -0.707107
0.707107 -0.000000 0.707107
-0.000000 0.707107 -0.707107
0.000000 -0.707107 0.707107
-0.000000 -0.707107 -0.707107
0.000000 0.707107 0.707107
-0.707107 0.000000 0.707107
0.707107 -0.000000 -0.707107
0.000000 -0.707107 0.707107
-0.000000 0.707107 -0.707107
0.707107 0.000000 -0.707107
-0.707107 -0.000000 0.707107
-0.707107 0.000000 -0.707107
0.707107 -0.000000 0.707107
0.707107 0.707107 0.000000
-0.707107 -0.707107 -0.000000
0.707107 0.000000 0.707107
-0.707107 -0.000000 -0.707107
0.000000 0.707107 -0.707107
-0.000000 -0.707107 0.707107
-0.000000 -0.707107 0.707107
0.707107 0.707107 -0.000000
-0.707107 -0.707107 0.000000
0.000000 0.707107 -0.707107
0.000000 0.707107 -0.707107
0.707107 -0.707107 0.000000
0.707107 -0.707107 0.000000
-0.707107 -0.000000 0.707107
-0.707107 -0.000000 0.707107
0.707107 0.707107 -0.000000
-0.000000 0.707107 -0.707107
0.000000 -0.707107 0.707107
0.000000 -0.707107 -0.707107
-0.707107 0.000000 0.707107
0.707107 -0.000000 -0.707107
0.707107 0.707107 -0.000000
-0.707107 -0.707107 0.000000
-0.000000 -0.707107 0.707107
0.000000 0.707107 -0.707107
-0.000000 -0.707107 0.707107
0.000000 0.707107 -0.707107
-0.000000 0.707107 -0.707107
0.000000 -0.707107 0.707107
0.000000 0.707107 0.707107
-0.000000 -0.707107 -0.707107
-0.707107 -0.707107 0.000000
0.707107 0.707107 -0.000000
0.707107 0.707107 -0.000000
-0.707107 -0.707107 0.000000
0.707107 0.000000 -0.707107
-0.707107 0.000000 -0.707107
0.707107 -0.000000 0.707107
-0.707107 -0.000000 0.707107
0.707107 0.707107 0.000000
-0.707107 -0.707107 -0.000000
-0.000000 -0.707107 -0.707107
-0.707107 -0.000000 0.707107
0.707107 0.707107 0.000000
-0.707107 0.000000 -0.707107
0.707107 0.000000 0.707107
0.707107 -0.707107 0.000000
-0.707107 0.707107 -0.000000
-0.707107 0.000000 0.707107
-0.000000 -0.707107 -0.707107
0.707107 0.707107 0.000000
-0.000000 -0.707107 -0.707107
0.000000 0.707107 0.707107
0.707107 0.707107 -0.000000
-0.707107 -0.707107 -0.000000
0.000000 0.707107 -0.707107
-0.000000 -0.707107 0.707107
-0.707107 0.000000 0.707107
-0.000000 -0.707107 -0.707107
0.707107 0.707107 0.000000
-0.707107 0.000000 0.707107
0.707107 -0.000000 -0.707107
-0.707107 -0.000000 0.707107
0.707107 0.000000 -0.707107
-0.707107 0.707107 -0.000000
0.000000 -0.707107 0.707107
0.707107 0.000000 -0.707107
-0.000000 -0.707107 0.707107
-0.000000 0.707107 0.707107
0.000000 -0.000000 -1.414214
-0.000000 0.707107 0.707107
0.707107 -0.707107 0.000000
-0.707107 0.000000 -0.707107
0.000000 0.707107 -0.707107
0.000000 0.707107 -0.707107
-0.000000 -0.707107 0.707107
-0.707107 -0.000000 0.707107
0.707107 -0.707107 0.000000
-0.000000 0.707107 -0.707107
0.707107 -0.707107 0.000000
-0.707107 0.707107 -0.000000
-0.707107 -0.707107 0.000000
0.707107 0.707107 -0.000000
-0.707107 0.707107 -0.000000
0.707107 -0.707107 -0.000000
0.000000 0.707107 0.707107
-0.000000 -0.707107 -0.707107
0.707107 -0.707107 0.000000
-0.707107 0.707107 -0.000000
-0.707107 0.707107 0.000000
0.707107 -0.707107 -0.000000
-0.000000 0.707107 -0.707107
0.000000 -0.707107 0.707107
0.000000 -0.707107 0.707107
-0.000000 0.707107 -0.707107
0.707107 0.000000 0.707107
-0.707107 -0.000000 -0.707107
-0.707107 -0.707107 0.000000
0.707107 -0.000000 0.707107
0.000000 0.707107 -0.707107
-0.000000 0.707107 -0.707107
0.000000 -0.707107 0.707107
0.707107 -0.707107 0.000000
-0.707107 0.707107 -0.000000
0.000000 -0.707107 0.707107
-0.000000 0.707107 -0.707107
-0.707107 -0.000000 -0.707107
0.707107 -0.000000 0.707107
0.000000 -0.707107 -0.707107
-0.000000 0.707107 0.707107
-0.000000 -0.707107 0.707107
0.000000 0.707107 -0.707107
0.707107 0.707107 0.000000
0.000000 -0.707107 -0.707107
-0.707107 0.000000 0.707107
0.000000 0.707107 -0.707107
0.000000 -0.707107 0.707107
-0.707107 -0.707107 0.000000
0.707107 0.707107 -0.000000
-0.707107 0.000000 0.707107
0.707107 -0.000000 -0.707107
-0.707107 0.000000 -0.707107
0.707107 -0.000000 0.707107
0.707107 -0.707107 0.000000
-0.707107 0.707107 -0.000000
-0.707107 -0.707107 0.000000
0.707107 0.707107 0.000000
-0.707107 0.000000 0.707107
0.707107 0.000000 -0.707107
0.000000 -0.707107 0.707107
-0.000000 0.707107 -0.707107
-0.707107 -0.707107 -0.000000
0.707107 0.707107 -0.000000
0.000000 -0.707107 -0.707107
-0.000000 0.707107 0.707107
-0.707107 0.000000 0.707107
0.707107 -0.000000 -0.707107
0.707107 -0.707107 0.000000
-0.707107 0.707107 -0.000000
-0.707107 0.000000 -0.707107
0.707107 -0.000000 0.707107
-0.707107 0.000000 0.707107
0.707107 -0.000000 -0.707107
0.000000 -0.707107 0.707107
-0.707107 -0.000000 -0.707107
0.707107 0.707107 0.000000
-0.707107 -0.707107 -0.000000
0.000000 -0.707107 -0.707107
0.707107 0.000000 0.707107
-0.707107 0.707107 0.000000
0.707107 -0.000000 -0.707107
-0.707107 0.000000 0.707107
-0.000000 -0.707107 -0.707107
-0.000000 0.707107 0.707107
-0.707107 -0.000000 -0.707107
0.707107 0.000000 0.707107
0.000000 -0.707107 -0.707107
0.707107 0.707107 -0.000000
-0.707107 0.000000 0.707107
0.000000 0.707107 0.707107
0.000000 -0.707107 0.707107
-0.000000 0.707107 -0.707107
-0.000000 -0.707107 -0.707107
0.000000 0.707107 -0.707107
-0.000000 0.707107 0.707107
0.000000 -0.707107 -0.707107
-0.000000 -0.707107 0.707107
0.707107 0.707107 0.000000
-0.707107 -0.707107 -0.000000
0.707107 0.707107 -0.000000
-0.707107 -0.707107 0.000000
0.707107 0.000000 0.707107
0.000000 -0.707107 -0.707107
-0.707107 0.707107 0.000000
0.000000 -0.707107 0.707107
-0.000000 0.707107 -0.707107
-0.707107 -0.707107 0.000000
0.707107 0.707107 -0.000000
0.707107 0.000000 -0.707107
0.000000 0.707107 0.707107
0.000000 -0.707107 0.707107
-0.707107 0.000000 -0.707107
0.707107 0.000000 -0.707107
-0.707107 -0.000000 0.707107
0.000000 -0.707107 -0.707107
-0.000000 0.707107 0.707107
0.000000 -0.707107 -0.707107
-0.000000 0.707107 0.707107
-0.000000 0.000000 1.414214
0.000000 -0.000000 -1.414214
-0.707107 0.000000 0.707107
-0.000000 -0.707107 -0.707107
0.707107 0.707107 0.000000
0.000000 0.707107 0.707107
-0.000000 -1.414214 -0.000000
-0.707107 -0.000000 -0.707107
0.707107 0.707107 -0.000000
-0.707107 -0.707107 0.000000
0.707107 0.707107 0.000000
-0.707107 0.000000 0.707107
0.707107 0.707107 -0.000000
0.000000 -0.707107 -0.707107
0.000000 0.707107 -0.707107
-0.000000 -0.707107 0.707107
0.707107 -0.000000 0.707107
-0.000000 0.707107 -0.707107
-0.707107 -0.707107 -0.000000
-0.707107 0.000000 0.707107
0.707107 -0.000000 -0.707107
-0.707107 0.707107 0.000000
0.707107 -0.707107 0.000000
-0.707107 -0.000000 0.707107
0.707107 -0.000000 -0.707107
0.000000 0.707107 0.707107
-0.000000 -0.707107 -0.707107
-0.707107 -0.000000 -0.707107
0.707107 0.000000 -0.707107
-0.000000 -0.000000 1.414214
-0.707107 0.000000 0.707107
0.707107 0.000000 -0.707107
0.000000 -1.414214 0.000000
-0.000000 1.414214 -0.000000
-0.707107 -0.707107 0.000000
-0.000000 0.707107 -0.707107
0.707107 0.000000 0.707107
0.707107 -0.000000 -0.707107
-0.707107 -0.707107 -0.000000
-0.000000 0.707107 0.707107
-0.000000 0.707107 0.707107
0.707107 0.000000 0.707107
-0.707107 -0.000000 -0.707107
0.707107 -0.707107 -0.000000
-0.707107 0.707107 -0.000000
-0.000000 0.707107 -0.707107
0.000000 -0.707107 0.707107
0.000000 -0.707107 -0.707107
-0.707107 0.707107 -0.000000
0.707107 0.000000 0.707107
-0.000000 0.707107 -0.707107
0.000000 -0.707107 0.707107
0.000000 -0.707107 -0.707107
0.707107 0.707107 -0.000000
-0.707107 -0.000000 0.707107
0.000000 -0.707107 -0.707107
-0.000000 0.707107 0.707107
-0.707107 0.707107 -0.000000
0.707107 -0.707107 0.000000
0.000000 0.707107 -0.707107
-0.000000 -0.707107 0.707107
0.000000 -0.707107 -0.707107
-0.000000 0.707107 0.707107
-0.707107 -0.707107 -0.000000
0.707107 0.707107 0.000000
-0.707107 -0.707107 -0.000000
-0.707107 0.000000 0.707107
0.707107 -0.707107 -0.000000
0.000000 0.707107 -0.707107
-0.707107 -0.000000 -0.707107
0.707107 0.000000 0.707107
-0.707107 0.000000 0.707107
0.707107 -0.000000 -0.707107
-0.000000 0.707107 -0.707107
-0.707107 0.000000 0.707107
0.707107 -0.707107 -0.000000
0.000000 0.707107 0.707107
-0.000000 -0.707107 -0.707107
0.707107 0.707107 -0.000000
-0.707107 0.000000 -0.707107
0.000000 -0.707107 0.707107
0.707107 -0.000000 0.707107
-0.707107 0.000000 -0.707107
-0.000000 -0.000000 1.414214
-0.707107 0.000000 -0.707107
0.000000 0.707107 -0.707107
0.707107 -0.707107 0.000000
0.707107 0.707107 0.000000
-0.707107 0.000000 -0.707107
-0.000000 -0.707107 0.707107
-0.707107 -0.000000 -0.707107
0.707107 0.000000 0.707107
0.000000 1.414214 0.000000
-0.000000 -0.707107 0.707107
-0.000000 -0.707107 -0.707107
0.707107 0.000000 0.707107
-0.707107 -0.000000 -0.707107
-0.707107 0.000000 0.707107
0.707107 0.000000 -0.707107
-0.707107 -0.707107 -0.000000
0.707107 0.707107 0.000000
0.707107 0.707107 -0.000000
-0.707107 -0.707107 0.000000
0.000000 0.707107 0.707107
-0.000000 -0.707107 -0.707107
-0.707107 -0.000000 -0.707107
0.707107 0.707107 -0.000000
-0.000000 -0.707107 0.707107
-0.707107 -0.707107 0.000000
0.707107 0.707107 -0.000000
0.707107 0.000000 -0.707107
-0.707107 -0.707107 0.000000
0.000000 0.707107 0.707107
0.707107 -0.000000 0.707107
-0.707107 0.000000 -0.707107
0.000000 -0.707107 0.707107
-0.000000 0.707107 -0.707107
-0.707107 0.000000 -0.707107
0.707107 -0.000000 0.707107
0.707107 0.000000 0.707107
-0.707107 0.000000 -0.707107
-0.707107 0.707107 0.000000
0.707107 -0.707107 -0.000000
-0.707107 -0.707107 -0.000000
0.707107 0.000000 0.707107
0.000000 0.707107 -0.707107
0.707107 0.707107 -0.000000
-0.000000 -0.707107 -0.707107
-0.707107 0.000000 0.707107
-0.000000 0.707107 0.707107
0.000000 -0.707107 -0.707107
0.000000 -0.707107 -0.707107
-0.000000 0.707107 0.707107
-0.707107 0.707107 0.000000
-0.000000 -0.707107 -0.707107
0.707107 0.000000 0.707107
-0.707107 -0.707107 -0.000000
0.707107 0.000000 0.707107
-0.000000 0.707107 -0.707107
-0.707107 0.707107 -0.000000
0.707107 0.000000 0.707107
-0.000000 -0.707107 -0.707107
0.000000 -0.707107 0.707107
0.707107 0.707107 0.000000
-0.707107 -0.000000 -0.707107
-0.707107 0.707107 -0.000000
0.707107 -0.707107 0.000000
0.000000 -0.707107 -0.707107
-0.707107 0.000000 0.707107
-0.707107 0.707107 0.000000
1.414214 0.000000 -0.000000
-0.000000 0.707107 0.707107
0.000000 -0.707107 -0.707107
-0.000000 -0.707107 -0.707107
0.000000 0.707107 0.707107
0.000000 0.707107 0.707107
0.707107 -0.707107 0.000000
-0.707107 0.707107 0.000000
0.707107 -0.000000 -0.707107
-0.707107 0.000000 0.707107
-0.707107 0.000000 0.707107
0.707107 -0.000000 -0.707107
-0.707107 0.707107 0.000000
0.707107 -0.707107 -0.000000
0.707107 -0.707107 0.000000
-0.707107 0.707107 -0.000000
0.707107 0.707107 0.000000
-0.000000 -0.707107 0.707107
-0.707107 0.000000 -0.707107
0.707107 0.000000 0.707107
-0.707107 -0.000000 -0.707107
0.707107 -0.000000 -0.707107
-0.707107 0.000000 0.707107
-0.707107 -0.707107 0.000000
0.707107 0.707107 0.000000
0.000000 -0.707107 -0.707107
-0.707107 0.000000 0.707107
0.707107 0.707107 0.000000
0.000000 -0.707107 -0.707107
-0.707107 0.000000 0.707107
0.707107 0.707107 0.000000
0.000000 0.707107 -0.707107
0.000000 -0.707107 0.707107
-0.707107 -0.000000 -0.707107
0.707107 0.000000 0.707107
-0.707107 0.000000 -0.707107
0.707107 -0.000000 0.707107
-0.707107 0.707107 0.000000
0.000000 -0.707107 0.707107
0.707107 -0.000000 -0.707107
0.000000 -0.707107 0.707107
-0.000000 0.707107 -0.707107
0.000000 0.707107 0.707107
-0.000000 -0.707107 -0.707107
0.707107 0.000000 -0.707107
-0.707107 -0.707107 -0.000000
-0.000000 0.707107 0.707107
-0.707107 -0.000000 0.707107
0.707107 0.000000 -0.707107
0.707107 -0.707107 -0.000000
-0.707107 0.707107 0.000000
0.707107 0.000000 -0.707107
-0.707107 -0.707107 -0.000000
-0.000000 0.707107 0.707107
-0.707107 -0.000000 0.707107
0.707107 0.707107 0.000000
-0.000000 -0.707107 -0.707107
-0.000000 0.707107 0.707107
0.707107 -0.707107 0.000000
-0.707107 0.000000 -0.707107
0.707107 0.707107 -0.000000
-0.707107 -0.707107 0.000000
0.000000 0.707107 0.707107
-0.000000 -0.707107 -0.707107
0.000000 -0.707107 0.707107
0.000000 0.707107 -0.707107
0.707107 0.707107 0.000000
-0.707107 -0.707107 -0.000000
0.000000 0.707107 0.707107
0.000000 -0.707107 -0.707107
0.000000 0.707107 -0.707107
-0.000000 -0.707107 0.707107
0.707107 0.000000 -0.707107
-0.707107 0.000000 0.707107
-0.000000 -0.707107 -0.707107
0.000000 0.707107 0.707107
-0.707107 -0.707107 -0.000000
0.707107 0.707107 0.000000
-0.707107 0.707107 0.000000
0.707107 -0.707107 -0.000000
0.707107 0.000000 -0.707107
-0.707107 -0.000000 0.707107
0.000000 0.707107 -0.707107
-0.000000 -0.707107 0.707107
0.707107 -0.000000 -0.707107
0.000000 -0.707107 0.707107
-0.000000 -0.707107 0.707107
-0.000000 0.707107 -0.707107
-0.707107 0.000000 0.707107
0.707107 -0.000000 -0.707107
0.000000 -0.707107 0.707107
-0.000000 0.707107 -0.707107
0.000000 0.707107 0.707107
-0.000000 -0.707107 -0.707107
0.000000 0.707107 0.707107
-0.000000 -0.707107 -0.707107
0.000000 0.000000 1.414214
0.707107 0.000000 -0.707107
-0.707107 -0.000000 -0.707107
0.000000 -0.707107 0.707107
-0.000000 0.707107 -0.707107
-0.707107 -0.000000 0.707107
0.707107 0.707107 -0.000000
0.000000 -0.707107 -0.707107
0.707107 0.707107 -0.000000
-0.707107 -0.707107 0.000000
-0.707107 -0.707107 -0.000000
0.707107 0.707107 -0.000000
0.707107 0.000000 0.707107
-0.707107 -0.000000 -0.707107
0.707107 0.707107 -0.000000
-0.707107 -0.707107 0.000000
0.000000 -0.707107 0.707107
-0.000000 0.707107 -0.707107
-0.000000 0.707107 0.707107
0.707107 0.000000 -0.707107
-0.707107 -0.707107 -0.000000
-0.707107 0.000000 -0.707107
0.707107 -0.000000 0.707107
0.707107 -0.000000 0.707107
0.707107 0.707107 0.000000
-0.707107 -0.707107 -0.000000
0.000000 -0.707107 -0.707107
0.000000 0.707107 0.707107
-0.000000 0.707107 0.707107
0.000000 -0.707107 -0.707107
0.707107 -0.707107 0.000000
-0.707107 0.707107 -0.000000
0.000000 0.707107 0.707107
-0.707107 -0.707107 0.000000
0.707107 0.000000 -0.707107
0.707107 0.707107 -0.000000
-0.707107 -0.707107 -0.000000
-0.707107 0.000000 0.707107
0.707107 -0.000000 -0.707107
-0.000000 0.707107 0.707107
-0.000000 -0.707107 -0.707107
-0.707107 0.000000 0.707107
0.707107 -0.000000 -0.707107
0.707107 0.707107 0.000000
-0.707107 -0.707107 -0.000000
-0.000000 0.707107 -0.707107
0.000000 -0.707107 0.707107
-0.707107 0.707107 0.000000
0.707107 -0.707107 -0.000000
0.707107 -0.000000 -0.707107
-0.707107 0.000000 0.707107
0.707107 0.707107 0.000000
-0.707107 -0.707107 -0.000000
-0.000000 -0.707107 0.707107
-0.000000 -0.707107 0.707107
0.707107 0.000000 -0.707107
-0.707107 0.707107 0.000000
0.707107 -0.000000 -0.707107
-0.707107 -0.000000 0.707107
0.000000 0.707107 -0.707107
-0.000000 -0.707107 0.707107
-0.707107 -0.707107 0.000000
0.707107 0.707107 -0.000000
-0.000000 -0.707107 0.707107
0.000000 0.707107 -0.707107
-0.000000 -0.707107 -0.707107
0.000000 0.707107 0.707107
0.707107 0.000000 -0.707107
-0.707107 0.707107 0.000000
-0.707107 0.707107 0.000000
-0.000000 -0.707107 0.707107
0.707107 0.000000 0.707107
-0.707107 -0.000000 -0.707107
0.707107 -0.707107 0.000000
0.707107 0.707107 -0.000000
-0.707107 0.707107 -0.000000
-0.707107 -0.707107 0.000000
-0.707107 0.000000 -0.707107
0.707107 -0.707107 -0.000000
-0.000000 0.707107 0.707107
-0.707107 0.000000 0.707107
0.000000 0.707107 -0.707107
0.707107 -0.707107 0.000000
-0.707107 -0.707107 0.000000
-0.000000 0.707107 -0.707107
0.707107 0.000000 0.707107
-0.000000 -0.707107 0.707107
-0.000000 0.707107 -0.707107
-0.000000 -0.707107 -0.707107
-0.000000 0.707107 0.707107
-0.707107 0.707107 0.000000
0.707107 -0.000000 0.707107
-0.000000 -0.707107 -0.707107
-0.000000 -0.707107 0.707107
0.000000 0.707107 -0.707107
0.707107 0.000000 -0.707107
0.000000 -0.707107 0.707107
-0.707107 0.707107 0.000000
-0.707107 0.000000 0.707107
0.707107 -0.000000 -0.707107
0.707107 0.000000 -0.707107
-0.707107 0.707107 0.000000
0.000000 -0.707107 0.707107
0.707107 0.000000 -0.707107
-0.707107 -0.707107 -0.000000
0.000000 0.707107 0.707107
-0.707107 -0.000000 0.707107
0.707107 0.707107 -0.000000
0.000000 -0.707107 -0.707107
0.707107 0.707107 0.000000
-0.707107 -0.000000 -0.707107
-0.707107 0.000000 0.707107
-0.000000 0.707107 -0.707107
-0.000000 -0.000000 1.414214
0.000000 -0.707107 -0.707107
0.707107 -0.000000 0.707107
-0.000000 -0.707107 -0.707107
-0.707107 0.707107 0.000000
-0.707107 -0.000000 -0.707107
0.707107 -0.000000 0.707107
0.000000 -0.707107 -0.707107
-0.000000 0.707107 0.707107
0.707107 0.000000 0.707107
-0.707107 -0.000000 -0.707107
0.707107 0.000000 0.707107
-0.707107 0.000000 -0.707107
-0.707107 -0.000000 0.707107
0.707107 0.000000 -0.707107
-0.707107 0.707107 -0.000000
0.000000 -0.707107 0.707107
0.707107 -0.000000 -0.707107
0.707107 0.707107 0.000000
-0.707107 -0.707107 -0.000000
0.707107 -0.707107 0.000000
-0.707107 0.707107 -0.000000
0.707107 0.000000 -0.707107
-0.707107 0.000000 0.707107
0.000000 -0.707107 0.707107
0.707107 0.707107 -0.000000
-0.707107 0.000000 -0.707107
-0.000000 0.707107 0.707107
-0.707107 -0.707107 0.000000
0.707107 0.000000 -0.707107
0.707107 0.707107 0.000000
0.707107 -0.707107 0.000000
-0.707107 0.707107 0.000000
-0.707107 -0.707107 0.000000
0.000000 0.707107 0.707107
0.707107 0.000000 -0.707107
-0.707107 -0.707107 -0.000000
0.707107 0.707107 -0.000000
-0.707107 -0.707107 0.000000
-0.707107 0.000000 0.707107
0.707107 -0.000000 -0.707107
-0.707107 -0.000000 0.707107
0.707107 -0.707107 -0.000000
0.000000 0.707107 -0.707107
-0.707107 0.000000 0.707107
0.707107 -0.000000 -0.707107
-0.707107 0.000000 0.707107
-0.000000 0.707107 -0.707107
0.707107 -0.707107 -0.000000
-0.707107 0.000000 -0.707107
-0.000000 -0.707107 0.707107
0.707107 0.707107 0.000000
0.707107 -0.707107 -0.000000
-0.707107 0.707107 0.000000
0.000000 0.707107 0.707107
-0.707107 0.000000 -0.707107
0.707107 -0.707107 0.000000
0.707107 -0.000000 -0.707107
-0.000000 -0.707107 0.707107
-0.707107 0.000000 -0.707107
0.707107 0.000000 0.707107
-0.707107 -0.000000 -0.707107
0.707107 0.000000 0.707107
-0.707107 0.000000 0.707107
0.707107 -0.000000 -0.707107
-0.707107 0.000000 0.707107
0.707107 -0.000000 -0.707107
0.000000 -0.707107 -0.707107
-0.000000 0.707107 0.707107
0.707107 0.000000 -0.707107
-0.707107 -0.000000 0.707107