# vtk DataFile Version 3.0
Configuration exported from OpenDiS
ASCII
DATASET UNSTRUCTURED_GRID
POINTS 31320 FLOAT
-29412.000000 -29412.000000 -29412.000000
29412.000000 -29412.000000 -29412.000000
-29412.000000 29412.000000 -29412.000000
-29412.000000 -29412.000000 29412.000000
29412.000000 29412.000000 -29412.000000
29412.000000 -29412.000000 29412.000000
-29412.000000 29412.000000 29412.000000
29412.000000 29412.000000 29412.000000
-10839.973360 4381.410556 3736.628175
-10818.404984 4119.284096 3496.070091
-10839.973360 4381.410556 3736.628175
-10543.106266 5270.856477 4922.941191
-15061.120989 -22646.203540 1856.964486
-14835.446655 -23620.350092 1108.492268
-15061.120989 -22646.203540 1856.964486
-15189.496428 -23137.473904 2219.859411
20293.657720 9117.447032 24848.503964
20293.657720 8394.193127 24109.723768
20293.657720 9117.447032 24848.503964
20293.657720 10414.861138 26108.272996
5390.615096 -22283.055276 14458.119722
6437.179457 -22426.953142 15648.581949
5390.615096 -22283.055276 14458.119722
4928.227836 -22058.458710 13771.135895
27720.228192 -23295.866852 -1565.349689
27190.849101 -24063.057797 -2861.919726
27720.228192 -23295.866852 -1565.349689
28226.971777 -22634.802299 -397.541551
-28580.893531 -24728.707035 20686.965083
-28946.204810 -26110.217299 21703.164068
-28580.893531 -24728.707035 20686.965083
-28894.612137 -24068.201461 19712.740903
10165.276193 27869.266271 -4935.021131
11029.398387 28658.785704 -4860.418371
10165.276193 27869.266271 -4935.021131
9270.784622 27125.000171 -5085.246602
28343.005899 -8665.120399 -22674.883868
28820.456220 -8665.120399 -23159.975720
28343.005899 -8665.120399 -22674.883868
27521.890464 -8665.120399 -21885.740552
-2580.732853 -12646.285404 8661.127445
-1686.620135 -12646.285404 7767.014727
-2580.732853 -12646.285404 8661.127445
-3471.066615 -12646.285404 9551.461206
1962.767755 -6115.342627 -18607.423160
2012.692470 -5377.567582 -19295.273490
1962.767755 -6115.342627 -18607.423160
1959.918215 -6746.892045 -17978.723283
-7845.306767 -6032.120581 -15487.261309
-7182.030671 -6755.061462 -15487.261578
-7845.306767 -6032.120581 -15487.261309
-8340.809842 -5522.377622 -15487.260875
-11426.867899 18584.014219 -13156.759857
-12161.326579 18567.624658 -13907.608097
-11426.867899 18584.014219 -13156.759857
-10701.071076 18615.747480 -12399.229772
6317.193632 -21145.282785 -3246.131030
7222.818698 -22213.216328 -3408.439508
6317.193632 -21145.282785 -3246.131030
4944.881830 -20129.176464 -3602.336511
24827.716518 -28630.062933 23778.494061
25253.943224 -27564.404021 22286.608443
24827.716518 -28630.062933 23778.494061
24802.357214 -29412.000005 24585.790437
24802.357214 29411.999984 24585.790437
24795.249353 29192.833906 24812.064387
-20002.771578 -14864.230841 -7156.259333
-19308.796521 -15721.412424 -7319.465860
-20002.771578 -14864.230841 -7156.259333
-20631.185524 -14088.475089 -7008.917527
-22555.847359 -1773.180727 -15954.283400
-21858.924292 -1922.072261 -16502.314933
-22555.847359 -1773.180727 -15954.283400
-23210.567932 -1496.798846 -15575.944707
-15195.248675 -24380.111724 13258.928573
-14481.292603 -24506.270942 13846.725425
-15195.248675 -24380.111724 13258.928573
-16250.124684 -24206.136481 12378.027806
27918.674978 27057.043445 21099.100056
27172.624180 26755.982920 22146.211380
27918.674978 27057.043445 21099.100056
28627.853402 27571.431745 19875.533333
23998.996039 12201.901647 12296.882103
24745.185554 11854.543244 11898.050990
23998.996039 12201.901647 12296.882103
23193.244732 12562.460356 12742.074701
-18158.076061 9572.791711 -12235.436093
-19222.655982 9159.224079 -11584.423805
-18158.076061 9572.791711 -12235.436093
-17150.435773 10028.613074 -12787.255019
-5554.850761 28859.736859 22908.624210
-6107.112976 29411.999996 22908.624210
-6107.112976 -29411.999992 22908.624210
-6353.233424 -29165.879146 22908.624210
-5554.850761 28859.736859 22908.624210
-4846.196079 28151.082176 22908.624210
10670.402729 -9369.981432 -26014.646893
10195.474817 -9471.573969 -26387.982267
10670.402729 -9369.981432 -26014.646893
11799.622347 -8969.978676 -25285.430030
16109.487366 27775.626462 -20783.430598
15159.732672 27828.630042 -21680.181712
16109.487366 27775.626462 -20783.430598
15846.338916 27535.968840 -20759.939768
16109.487366 27775.626462 -20783.430598
16171.047906 27789.754176 -20830.863423
1141.348475 18664.441276 10733.882044
2136.854511 19680.019149 10733.882044
1141.348475 18664.441276 10733.882044
528.179303 18089.631807 10733.882044
12418.646218 -11951.046847 -22631.466037
13139.819742 -12672.220370 -22631.466037
12418.646218 -11951.046847 -22631.466037
11636.193977 -11168.594605 -22631.466037
-12684.100137 940.541778 -17334.741463
-13307.070170 910.120988 -17988.132286
-12684.100137 940.541778 -17334.741463
-11418.121004 872.211368 -16137.092739
-9845.533594 -14295.371709 7296.422109
-9073.041044 -14984.002611 7380.283758
-9845.533594 -14295.371709 7296.422109
-10620.204710 -13838.733893 6978.388809
14044.439318 -5528.775129 18069.735106
13605.266593 -6402.191874 18503.979126
14044.439318 -5528.775129 18069.735106
14345.948078 -4993.058360 17835.527097
6307.527472 15319.999102 -6243.088871
6295.477778 14967.908255 -6607.229412
6307.527472 15319.999102 -6243.088871
6371.498238 15707.018691 -5792.098516
-23868.570166 20540.524542 6867.145355
-22667.685215 20363.555887 7891.061651
-23868.570166 20540.524542 6867.145355
-24708.094111 20663.360375 6150.457243
4718.872750 -6756.112449 12078.412934
4718.872750 -5968.877546 12865.649416
4718.872750 -6756.112449 12078.412934
4718.872750 -7655.267716 11179.257667
28754.407429 18856.216968 -23168.142679
28357.791245 18411.768744 -23120.310639
28754.407429 18856.216968 -23168.142679
29411.999994 19544.746655 -23199.079800
-29411.999994 19544.746655 -23199.079800
-29394.307184 19563.271854 -23199.912177
-16814.327509 24262.056682 -15923.984306
-17431.464626 24262.056682 -16535.370063
-16814.327509 24262.056682 -15923.984306
-15903.883702 24262.056682 -15013.771550
-20421.076074 -13482.157478 28929.541346
-19933.749134 -13870.606418 28830.663346
-20421.076074 -13482.157478 28929.541346
-21376.711259 -12856.796243 29259.815298
-26889.905197 -9434.279591 13558.487675
-27185.445939 -10569.048872 14988.797698
-26889.905197 -9434.279591 13558.487675
-26786.058793 -8609.684669 12630.046349
6407.156946 11705.734070 -20719.078593
5135.228303 10430.895775 -20721.988245
6407.156946 11705.734070 -20719.078593
7204.734006 12820.989931 -20401.399792
27796.417205 -23563.818366 -23154.073749
28114.303371 -23366.871365 -22644.017751
27796.417205 -23563.818366 -23154.073749
27453.663793 -24156.847583 -24089.856378
-27586.173787 25503.165748 -22846.621940
-28718.367099 26621.843348 -22846.621940
-27586.173787 25503.165748 -22846.621940
-26626.777316 24543.906508 -22846.621940
10560.118681 29371.285489 16661.901851
10823.293183 29411.999998 16884.361497
10823.293183 -29411.999990 16884.361497
11417.377523 -29320.091962 17386.537015
10560.118681 29371.285489 16661.901851
9786.689478 29305.974848 15953.783288
23478.315205 12152.587652 16627.206331
24586.484147 11280.961448 16390.663593
23478.315205 12152.587652 16627.206331
22650.973542 12946.229097 16660.906549
-593.504789 212.319227 -14514.493649
-1000.897684 -209.079252 -14528.499233
-593.504789 212.319227 -14514.493649
-2.513756 893.466603 -14424.337307
-2648.138596 -12873.250761 24330.346477
-3106.832575 -11553.380113 23469.171862
-2648.138596 -12873.250761 24330.346477
-2141.708299 -14224.352983 25175.018402
-18659.504777 1032.244112 -12757.820803
-18041.642106 1130.956308 -13474.395670
-18659.504777 1032.244112 -12757.820803
-18240.829816 1450.919073 -12757.820803
-18659.504777 1032.244112 -12757.820803
-18188.733268 1295.441424 -12550.246606
-19111.512922 -9957.711722 11172.638908
-19732.164056 -9489.159391 11324.737711
-19111.512922 -9957.711722 11172.638908
-17712.720370 -11056.018587 10872.153221
-4802.491925 25793.568742 -23981.368673
-5612.744048 26603.820872 -23981.368673
-4802.491925 25793.568742 -23981.368673
-3968.062675 24959.139486 -23981.368673
13626.872087 13985.698917 -20065.201944
12862.651826 13222.130783 -20065.201944
13626.872087 13985.698917 -20065.201944
14359.535031 14718.361123 -20065.201944
-23195.628156 -18860.208252 24159.250672
-22415.728527 -18218.966845 24297.908895
-23195.628156 -18860.208252 24159.250672
-21736.380119 -19669.326551 23509.120934
-19702.381720 27434.987319 5958.512896
-19702.381720 28269.726686 5123.773530
-19702.381720 27434.987319 5958.512896
-20232.107767 27745.192010 6178.034253
-19702.381720 27434.987319 5958.512896
-19369.976689 27161.116211 6564.789035
-6519.688831 -12675.326631 -23336.710068
-6519.688831 -11932.660002 -24079.376696
-6519.688831 -12675.326631 -23336.710068
-6519.688831 -13688.417871 -22314.999281
-18379.653784 6623.491125 -10267.456957
-17588.274775 6490.903556 -11191.423535
-18379.653784 6623.491125 -10267.456957
-19001.324431 6845.460421 -9423.817014
-19855.503026 6348.919829 -9378.339871
-20014.783074 5451.014494 -8639.714584
-19855.503026 6348.919829 -9378.339871
-19572.585156 7286.883363 -10033.385535
5935.492318 13371.761602 -7315.807580
6021.295234 13753.567146 -7611.810207
5935.492318 13371.761602 -7315.807580
5818.304918 12310.234813 -6371.468191
-27760.277246 16378.281265 -28901.315506
-27334.846743 15702.043300 -28650.508044
-27760.277246 16378.281265 -28901.315506
-28554.697235 17624.593948 -29353.208200
10455.353783 -22897.628198 362.985396
9263.461310 -22145.900802 -77.179682
10455.353783 -22897.628198 362.985396
11151.380314 -23238.545488 718.094636
8948.898684 4978.563117 22404.094740
9776.326887 4819.110174 21417.213594
8948.898684 4978.563117 22404.094740
8948.898684 4101.127328 23281.531753
8948.898684 4978.563117 22404.094740
7854.089693 4822.887593 21464.961272
3580.200579 19038.030611 25252.585048
3893.682354 18951.112680 25652.984754
3580.200579 19038.030611 25252.585048
2751.547613 19320.746137 24141.216557
-17333.890223 17833.148940 15975.066477
[...]
CELL_DATA 15657
VECTORS Burgers FLOAT
0.000000 0.000000 0.000000
-0.707107 0.707107 0.000000
0.707107 -0.707107 -0.000000
0.707107 0.000000 0.707107
-0.707107 0.000000 -0.707107
0.000000 -0.707107 0.707107
0.000000 0.707107 -0.707107
-0.000000 0.707107 -0.707107
0.000000 -0.707107 0.707107
-0.707107 0.707107 -0.000000
0.707107 -0.707107 0.000000
0.707107 0.000000 0.707107
-0.707107 0.000000 -0.707107
-0.707107 0.000000 -0.707107
0.707107 -0.000000 0.707107
-0.707107 0.000000 -0.707107
0.707107 -0.000000 0.707107
-0.707107 0.000000 -0.707107
0.707107 0.000000 0.707107
-0.707107 -0.707107 0.000000
0.707107 0.707107 -0.000000
0.707107 0.707107 0.000000
-0.707107 -0.707107 -0.000000
0.707107 0.000000 0.707107
-0.707107 -0.000000 -0.707107
0.000000 0.707107 0.707107
-0.000000 -0.707107 -0.707107
-0.707107 0.000000 0.707107
0.707107 -0.000000 -0.707107
0.707107 -0.000000 -0.707107
-0.707107 0.707107 0.000000
0.707107 -0.707107 -0.000000
0.000000 0.707107 -0.707107
-0.000000 -0.707107 0.707107
0.707107 -0.707107 -0.000000
-0.707107 0.707107 0.000000
-0.000000 -0.707107 0.707107
0.000000 0.707107 -0.707107
-0.707107 0.707107 -0.000000
0.707107 -0.707107 0.000000
-0.707107 0.000000 0.707107
0.707107 -0.000000 -0.707107
-0.707107 -0.707107 -0.000000
-0.707107 -0.707107 -0.000000
0.707107 0.707107 0.000000
0.707107 0.000000 0.707107
-0.707107 -0.000000 -0.707107
0.000000 -0.707107 -0.707107
0.707107 0.707107 0.000000
-0.707107 0.000000 0.707107
0.707107 -0.707107 0.000000
-0.707107 0.707107 -0.000000
0.707107 0.707107 0.000000
-0.707107 -0.707107 -0.000000
-0.000000 0.707107 0.707107
0.000000 -0.707107 -0.707107
0.000000 0.707107 0.707107
-0.000000 -0.707107 -0.707107
0.000000 0.707107 -0.707107
-0.000000 -0.707107 0.707107
-0.707107 0.707107 -0.000000
0.707107 -0.707107 0.000000
-0.707107 -0.000000 -0.707107
0.707107 0.000000 0.707107
-0.000000 0.707107 -0.707107
-0.000000 -0.707107 0.707107
-0.707107 0.000000 -0.707107
0.707107 -0.000000 0.707107
0.707107 -0.000000 0.707107
0.707107 -0.000000 -0.707107
-0.707107 -0.000000 0.707107
-0.707107 0.707107 0.000000
0.707107 -0.707107 -0.000000
-0.707107 0.000000 0.707107
0.707107 -0.000000 -0.707107
-0.000000 0.707107 0.707107
0.000000 -0.707107 -0.707107
-0.707107 0.707107 -0.000000
0.707107 -0.707107 0.000000
-0.707107 -0.707107 -0.000000
0.707107 0.707107 0.000000
-0.707107 -0.707107 -0.000000
-0.707107 -0.707107 -0.000000
0.707107 0.707107 0.000000
0.000000 0.707107 -0.707107
-0.000000 -0.707107 0.707107
-0.000000 0.707107 0.707107
0.000000 -0.707107 -0.707107
0.707107 -0.000000 -0.707107
-0.707107 0.000000 0.707107
-0.707107 0.707107 -0.000000
0.000000 -0.707107 -0.707107
0.707107 0.000000 0.707107
0.707107 -0.707107 0.000000
-0.707107 0.707107 -0.000000
-0.707107 -0.707107 0.000000
0.707107 0.707107 -0.000000
0.707107 -0.707107 0.000000
-0.707107 0.707107 -0.000000
0.000000 -0.707107 0.707107
-0.000000 0.707107 -0.707107
0.000000 0.707107 0.707107
0.707107 -0.707107 0.000000
-0.707107 0.000000 -0.707107
-0.000000 0.707107 0.707107
-0.000000 -0.707107 -0.707107
-0.707107 -0.707107 -0.000000
0.707107 0.707107 -0.000000
0.000000 0.707107 -0.707107
-0.000000 -0.707107 0.707107
-0.707107 -0.707107 -0.000000
0.707107 0.707107 0.000000
0.000000 0.707107 -0.707107
-0.000000 -0.707107 0.707107
0.707107 -0.000000 0.707107
-0.707107 0.000000 -0.707107
-0.707107 -0.000000 0.707107
-0.000000 -0.707107 -0.707107
0.707107 0.707107 0.000000
-0.707107 0.000000 -0.707107
0.707107 -0.000000 0.707107
0.707107 -0.000000 -0.707107
-0.000000 0.707107 0.707107
-0.707107 -0.707107 0.000000
0.707107 -0.000000 -0.707107
-0.707107 0.000000 0.707107
-0.707107 -0.707107 0.000000
0.707107 0.707107 -0.000000
0.707107 0.707107 0.000000
-0.707107 -0.707107 -0.000000
0.707107 0.707107 0.000000
-0.707107 -0.707107 -0.000000
0.707107 0.707107 0.000000
-0.707107 -0.707107 0.000000
-0.707107 0.000000 0.707107
0.707107 -0.000000 -0.707107
0.707107 0.000000 -0.707107
-0.707107 -0.000000 0.707107
-0.707107 0.000000 -0.707107
0.707107 -0.000000 0.707107
0.707107 -0.707107 0.000000
-0.707107 0.707107 0.000000
0.707107 0.000000 -0.707107
-0.707107 -0.000000 0.707107
0.000000 -0.707107 -0.707107
-0.000000 0.707107 0.707107
-0.707107 -0.707107 -0.000000
0.707107 0.707107 0.000000
0.000000 0.707107 0.707107
-0.000000 -0.707107 -0.707107
0.707107 -0.000000 0.707107
-0.707107 -0.000000 -0.707107
0.707107 0.000000 0.707107
-0.707107 -0.000000 -0.707107
0.707107 -0.707107 0.000000
0.707107 -0.707107 0.000000
-0.707107 0.707107 -0.000000
-0.000000 -0.707107 0.707107
0.707107 0.707107 0.000000
-0.707107 0.000000 -0.707107
0.707107 0.707107 -0.000000
-0.707107 -0.707107 0.000000
0.000000 -0.707107 -0.707107
-0.000000 0.707107 0.707107
0.707107 -0.707107 0.000000
-0.707107 0.707107 -0.000000
-0.707107 -0.707107 0.000000
0.707107 0.707107 0.000000
-0.707107 0.707107 -0.000000
0.707107 -0.707107 0.000000
-0.707107 -0.000000 -0.707107
0.707107 -0.000000 0.707107
0.000000 -0.707107 -0.707107
0.707107 0.707107 -0.000000
-0.707107 0.000000 0.707107
0.000000 0.707107 0.707107
-0.000000 -0.707107 -0.707107
0.707107 -0.000000 -0.707107
0.000000 0.707107 0.707107
-0.707107 -0.707107 0.000000
-0.000000 0.707107 0.707107
-0.000000 0.707107 0.707107
0.000000 -0.707107 -0.707107
-0.707107 -0.000000 0.707107
0.707107 -0.000000 -0.707107
-0.707107 -0.000000 0.707107
0.707107 0.000000 -0.707107
-0.707107 0.000000 0.707107
0.707107 -0.000000 -0.707107
-0.707107 -0.707107 -0.000000
0.707107 0.707107 -0.000000
-0.707107 0.707107 0.000000
0.707107 -0.707107 0.000000
0.707107 0.707107 0.000000
-0.707107 -0.707107 -0.000000
-0.707107 -0.707107 -0.000000
0.707107 0.707107 -0.000000
0.000000 0.707107 0.707107
0.000000 -0.707107 -0.707107
0.707107 -0.000000 0.707107
-0.707107 0.000000 -0.707107
-0.000000 0.707107 -0.707107
0.000000 -0.707107 0.707107
-0.000000 0.707107 0.707107
0.707107 -0.707107 0.000000
-0.707107 0.000000 -0.707107
-0.707107 -0.707107 0.000000
0.707107 0.707107 0.000000
0.000000 -0.707107 -0.707107
-0.000000 0.707107 0.707107
0.000000 -0.707107 -0.707107
-0.000000 0.707107 0.707107
0.000000 1.414214 -0.000000
-0.000000 -1.414214 0.000000
-0.707107 0.000000 -0.707107
0.707107 -0.000000 0.707107
-0.707107 -0.000000 -0.707107
0.707107 0.000000 0.707107
-0.000000 0.707107 0.707107
0.000000 -0.707107 -0.707107
0.000000 -0.707107 0.707107
-0.000000 0.707107 -0.707107
-0.000000 0.707107 -0.707107
0.707107 -0.000000 0.707107
-0.707107 -0.000000 -0.707107
0.707107 0.000000 0.707107
-0.707107 -0.000000 -0.707107
0.707107 0.000000 -0.707107
-0.707107 0.000000 0.707107
-0.707107 -0.707107 -0.000000
0.707107 0.707107 -0.000000
-0.707107 0.000000 0.707107
0.707107 -0.000000 -0.707107
0.707107 0.000000 0.707107
-0.707107 -0.000000 -0.707107
0.707107 0.707107 -0.000000
-0.707107 -0.707107 -0.000000
0.707107 0.707107 0.000000
-0.707107 -0.707107 -0.000000
-0.707107 -0.000000 0.707107
0.707107 0.000000 -0.707107
0.000000 -0.707107 0.707107
-0.000000 0.707107 -0.707107
-0.707107 0.000000 -0.707107
0.707107 -0.000000 0.707107
-0.707107 0.000000 -0.707107
0.707107 0.000000 0.707107
0.707107 -0.707107 -0.000000
-0.707107 0.707107 -0.000000
-0.707107 -0.000000 0.707107
0.707107 0.000000 -0.707107
-0.707107 -0.707107 0.000000
0.707107 0.707107 -0.000000
-0.707107 -0.000000 0.707107
0.707107 0.000000 -0.707107
-0.707107 0.000000 -0.707107
0.707107 -0.000000 0.707107
-0.707107 -0.000000 -0.707107
0.707107 0.000000 0.707107
0.000000 0.707107 -0.707107
-0.000000 -0.707107 0.707107
0.707107 0.707107 0.000000
-0.707107 -0.707107 0.000000
-0.707107 0.000000 -0.707107
0.707107 -0.000000 -0.707107
-0.707107 0.000000 0.707107
-0.707107 0.707107 0.000000
0.707107 -0.707107 -0.000000
0.000000 -0.707107 0.707107
-0.000000 -0.707107 -0.707107
0.000000 0.707107 0.707107
0.000000 0.707107 -0.707107
0.000000 0.707107 0.707107
-0.000000 -0.707107 -0.707107
-0.707107 -0.707107 0.000000
0.707107 0.707107 -0.000000
-0.707107 -0.000000 0.707107
0.707107 0.000000 -0.707107
-0.707107 -0.707107 -0.000000
0.707107 0.707107 -0.000000
-0.707107 -0.707107 0.000000
0.707107 0.707107 -0.000000
0.707107 0.000000 0.707107
-0.707107 -0.000000 -0.707107
-0.000000 -0.707107 -0.707107
-0.000000 0.707107 0.707107
0.000000 -0.707107 -0.707107
-0.000000 0.707107 0.707107
0.707107 -0.707107 0.000000
-0.707107 -0.000000 -0.707107
0.000000 0.707107 0.707107
-0.707107 -0.000000 -0.707107
0.000000 -0.707107 0.707107
0.707107 0.707107 0.000000
0.707107 -0.707107 0.000000
-0.707107 0.707107 -0.000000
-0.707107 -0.707107 0.000000
0.707107 0.000000 0.707107
0.000000 0.707107 -0.707107
0.707107 0.000000 -0.707107
-0.707107 0.000000 0.707107
0.707107 -0.000000 0.707107
-0.707107 0.000000 -0.707107
0.000000 0.707107 0.707107
0.000000 -0.707107 -0.707107
-0.707107 -0.707107 -0.000000
0.707107 0.000000 0.707107
0.000000 0.707107 -0.707107
0.707107 0.707107 -0.000000
-0.707107 -0.707107 0.000000
-0.000000 0.707107 -0.707107
0.000000 -0.707107 0.707107
-0.707107 0.707107 0.000000
0.707107 0.000000 -0.707107
0.000000 -0.707107 0.707107
-0.000000 -0.707107 -0.707107
-0.000000 0.707107 0.707107
0.707107 0.707107 0.000000
-0.707107 -0.707107 0.000000
-0.707107 0.000000 -0.707107
0.000000 -0.707107 0.707107
0.707107 0.707107 -0.000000
-0.000000 -0.707107 -0.707107
0.000000 0.707107 0.707107
-0.000000 -0.707107 -0.707107
0.000000 0.707107 0.707107
0.000000 0.707107 0.707107
-0.000000 -0.707107 -0.707107
0.000000 0.707107 0.707107
0.000000 -0.707107 -0.707107
0.000000 0.707107 0.707107
-0.000000 -0.707107 -0.707107
-0.707107 0.707107 -0.000000
0.707107 -0.707107 -0.000000
-0.000000 0.707107 0.707107
0.000000 -0.707107 -0.707107
-0.707107 -0.000000 -0.707107
0.707107 0.000000 0.707107
0.000000 0.707107 0.707107
-0.000000 -0.707107 -0.707107
-0.707107 -0.000000 0.707107
0.707107 0.000000 -0.707107
0.000000 0.707107 0.707107
-0.000000 -0.707107 -0.707107
-0.707107 -0.707107 0.000000
0.707107 0.707107 -0.000000
-0.000000 0.707107 0.707107
-0.000000 0.707107 0.707107
-0.000000 -0.707107 -0.707107
-0.707107 0.707107 -0.000000
0.707107 -0.707107 0.000000
0.000000 -0.707107 -0.707107
-0.000000 0.707107 0.707107
0.000000 0.707107 0.707107
-0.000000 -0.707107 -0.707107
-0.707107 0.000000 0.707107
0.707107 0.707107 0.000000
-0.707107 -0.707107 -0.000000
-0.000000 -0.707107 0.707107
0.000000 0.707107 -0.707107
0.000000 -0.707107 -0.707107
0.000000 0.707107 0.707107
-0.000000 -0.707107 0.707107
0.000000 0.707107 -0.707107
-0.000000 -0.707107 0.707107
0.000000 0.707107 -0.707107
-0.000000 0.707107 -0.707107
-0.707107 -0.707107 -0.000000
0.707107 0.000000 0.707107
0.707107 -0.707107 0.000000
-0.707107 0.707107 -0.000000
0.707107 0.000000 0.707107
-0.707107 0.000000 -0.707107
0.707107 0.000000 0.707107
-0.707107 -0.000000 -0.707107
-0.707107 0.000000 0.707107
0.707107 -0.000000 -0.707107
-0.707107 0.707107 -0.000000
0.707107 -0.707107 0.000000
0.707107 -0.000000 -0.707107
-0.707107 -0.000000 0.707107
0.707107 0.000000 -0.707107
-0.707107 -0.000000 -0.707107
0.707107 -0.000000 0.707107
0.000000 0.707107 0.707107
-0.000000 -0.707107 -0.707107
0.000000 -0.707107 -0.707107
0.000000 -0.707107 -0.707107
-0.000000 0.707107 0.707107
0.000000 -0.707107 -0.707107
-0.000000 0.707107 0.707107
0.000000 0.707107 0.707107
-0.000000 -0.707107 -0.707107
0.707107 0.707107 0.000000
0.707107 0.707107 0.000000
-0.707107 -0.707107 -0.000000
-0.000000 -0.707107 -0.707107
-0.000000 0.707107 0.707107
0.707107 -0.000000 0.707107
0.000000 0.707107 -0.707107
-0.707107 -0.707107 0.000000
-0.707107 0.707107 0.000000
0.707107 -0.707107 -0.000000
0.000000 -0.707107 -0.707107
0.707107 -0.000000 0.707107
0.707107 -0.000000 0.707107
-0.707107 0.707107 -0.000000
-0.000000 0.707107 0.707107
0.000000 -0.707107 -0.707107
0.707107 0.000000 0.707107
-0.707107 -0.000000 -0.707107
-0.707107 -0.707107 -0.000000
0.707107 0.707107 0.000000
0.000000 0.707107 0.707107
-0.000000 -0.707107 -0.707107
-0.000000 0.707107 0.707107
-0.000000 -0.707107 -0.707107
0.707107 -0.707107 0.000000
-0.707107 0.707107 -0.000000
0.707107 0.000000 -0.707107
-0.707107 -0.000000 0.707107
-0.707107 -0.707107 0.000000
0.707107 0.707107 -0.000000
0.707107 -0.000000 0.707107
-0.707107 0.000000 -0.707107
-0.707107 0.707107 -0.000000
0.707107 0.000000 0.707107
0.000000 -0.707107 -0.707107
-0.000000 0.707107 0.707107
0.000000 -0.707107 -0.707107
-0.707107 0.707107 0.000000
0.707107 -0.707107 -0.000000
-0.707107 -0.707107 0.000000
0.707107 0.707107 -0.000000
0.000000 0.707107 0.707107
-0.707107 0.000000 -0.707107
-0.707107 0.000000 0.707107
0.707107 -0.000000 0.707107
0.707107 -0.000000 -0.707107
0.707107 0.707107 -0.000000
-0.707107 -0.707107 0.000000
-0.000000 0.707107 -0.707107
0.000000 -0.707107 0.707107
0.000000 -0.707107 0.707107
-0.000000 0.707107 -0.707107
-0.000000 -0.707107 -0.707107
0.000000 0.707107 0.707107
0.707107 0.707107 -0.000000
-0.707107 -0.707107 0.000000
0.707107 -0.707107 0.000000
-0.707107 0.707107 -0.000000
-0.707107 0.707107 0.000000
0.707107 -0.707107 -0.000000
-0.707107 -0.707107 0.000000
0.707107 0.707107 -0.000000
0.000000 0.707107 -0.707107
-0.000000 -0.707107 0.707107
0.000000 0.707107 -0.707107
0.000000 -0.707107 0.707107
-0.000000 -0.707107 -0.707107
0.000000 0.707107 0.707107
-0.000000 -0.707107 -0.707107
0.000000 0.707107 0.707107
-0.707107 0.000000 -0.707107
0.707107 -0.000000 0.707107
-0.000000 -0.707107 -0.707107
0.000000 0.707107 0.707107
-0.000000 0.707107 0.707107
-0.000000 -0.707107 -0.707107
-0.707107 0.000000 -0.707107
0.707107 -0.000000 0.707107
0.707107 0.707107 0.000000
-0.707107 -0.707107 -0.000000
-0.707107 0.000000 -0.707107
-0.707107 0.000000 -0.707107
0.707107 -0.000000 0.707107
-0.707107 -0.000000 -0.707107
0.707107 -0.000000 0.707107
0.000000 -0.707107 0.707107
-0.000000 0.707107 -0.707107
-0.000000 0.707107 0.707107
-0.000000 -0.707107 -0.707107
0.000000 -0.707107 -0.707107
-0.000000 0.707107 0.707107
-0.707107 0.000000 -0.707107
0.707107 -0.000000 0.707107
-0.000000 -0.707107 -0.707107
0.000000 0.707107 0.707107
0.000000 0.707107 0.707107
0.707107 0.707107 0.000000
-0.707107 -0.707107 -0.000000
0.000000 0.707107 -0.707107
-0.000000 -0.707107 0.707107
-0.707107 -0.707107 0.000000
0.707107 0.707107 -0.000000
0.707107 0.000000 0.707107
-0.707107 -0.000000 -0.707107
0.707107 0.707107 -0.000000
-0.707107 -0.707107 -0.000000
0.000000 0.707107 0.707107
-0.000000 -0.707107 -0.707107
0.000000 -0.707107 0.707107
0.000000 0.707107 -0.707107
-0.707107 0.000000 0.707107
0.707107 -0.707107 0.000000
-0.707107 0.000000 -0.707107
-0.707107 0.000000 -0.707107
0.707107 0.707107 0.000000
0.707107 -0.000000 -0.707107
-0.707107 -0.000000 0.707107
-0.000000 -0.707107 -0.707107
0.000000 0.707107 0.707107
0.000000 0.707107 0.707107
0.000000 -0.707107 -0.707107
-0.707107 0.000000 0.707107
0.707107 -0.000000 -0.707107
0.000000 -0.707107 -0.707107
-0.000000 0.707107 0.707107
-0.707107 -0.000000 0.707107
0.707107 0.000000 -0.707107
0.000000 -0.707107 -0.707107
-0.000000 0.707107 0.707107
-0.707107 0.000000 0.707107
0.707107 -0.000000 -0.707107
-0.707107 0.000000 -0.707107
0.707107 -0.000000 0.707107
0.707107 -0.707107 0.000000
-0.707107 0.707107 -0.000000
-0.000000 -0.707107 -0.707107
0.000000 0.707107 0.707107
0.000000 -0.707107 -0.707107
-0.000000 0.707107 0.707107
0.000000 0.707107 -0.707107
-0.000000 -0.707107 0.707107
0.707107 0.000000 0.707107
-0.707107 -0.000000 -0.707107
0.707107 0.000000 0.707107
-0.707107 0.000000 -0.707107
0.707107 0.000000 0.707107
-0.707107 -0.000000 -0.707107
0.000000 -0.707107 -0.707107
-0.000000 0.707107 0.707107
-0.707107 0.000000 -0.707107
-0.707107 0.000000 -0.707107
0.707107 -0.000000 0.707107
0.707107 -0.000000 0.707107
0.707107 0.707107 -0.000000
-0.707107 -0.707107 0.000000
-0.707107 -0.000000 0.707107
0.707107 0.000000 -0.707107
0.707107 0.000000 0.707107
-0.707107 -0.000000 -0.707107
0.000000 -0.707107 0.707107
-0.000000 0.707107 -0.707107
-0.000000 0.707107 -0.707107
0.000000 -0.707107 0.707107
-0.000000 0.707107 0.707107
0.000000 -0.707107 -0.707107
-0.707107 0.000000 0.707107
0.707107 -0.000000 -0.707107
-0.707107 0.000000 -0.707107
0.707107 -0.000000 0.707107
0.707107 -0.000000 0.707107
-0.707107 0.000000 -0.707107
0.000000 -0.707107 0.707107
0.707107 0.707107 -0.000000
-0.000000 0.707107 0.707107
0.000000 -0.707107 -0.707107
-0.707107 0.000000 -0.707107
0.707107 -0.000000 0.707107
0.707107 0.000000 0.707107
-0.707107 -0.000000 -0.707107
-0.707107 0.707107 0.000000
0.707107 -0.707107 0.000000
0.000000 0.707107 0.707107
-0.000000 -0.707107 -0.707107
0.707107 0.707107 0.000000
-0.707107 -0.707107 -0.000000
0.707107 -0.000000 -0.707107
-0.707107 0.000000 0.707107
0.000000 0.707107 -0.707107
-0.000000 -0.707107 0.707107
-0.707107 0.707107 0.000000
0.707107 -0.707107 -0.000000
0.707107 0.000000 0.707107
-0.707107 -0.000000 -0.707107
0.707107 -0.707107 0.000000
-0.707107 0.707107 -0.000000
-0.000000 -0.707107 0.707107
0.000000 0.707107 -0.707107
0.707107 0.000000 0.707107
-0.707107 -0.000000 -0.707107
0.707107 0.707107 -0.000000
-0.707107 -0.707107 -0.000000
-0.707107 -0.000000 -0.707107
0.707107 0.000000 0.707107
0.707107 -0.000000 -0.707107
-0.707107 0.000000 0.707107
0.707107 0.707107 -0.000000
-0.707107 -0.707107 0.000000
0.707107 -0.707107 0.000000
-0.707107 0.707107 -0.000000
0.707107 -0.000000 -0.707107
-0.707107 0.000000 0.707107
-0.707107 0.000000 -0.707107
0.707107 -0.000000 0.707107
0.707107 0.000000 0.707107
-0.707107 -0.000000 -0.707107
0.000000 -0.707107 -0.707107
-0.000000 0.707107 0.707107
-0.707107 0.000000 -0.707107
0.707107 -0.000000 0.707107
0.707107 0.000000 0.707107
-0.707107 0.000000 -0.707107
-0.707107 0.707107 0.000000
0.707107 -0.000000 0.707107
0.000000 -0.707107 -0.707107
0.707107 0.000000 0.707107
-0.707107 -0.000000 -0.707107
0.707107 -0.707107 -0.000000
-0.707107 -0.000000 0.707107
0.000000 0.707107 -0.707107
0.707107 0.707107 0.000000
-0.707107 -0.707107 -0.000000
-0.707107 0.707107 0.000000
0.707107 -0.707107 -0.000000
-0.000000 -0.707107 0.707107
0.000000 0.707107 -0.707107
0.707107 -0.707107 0.000000
-0.707107 0.707107 -0.000000
0.707107 0.707107 0.000000
-0.707107 -0.707107 -0.000000
0.707107 0.707107 0.000000
-0.707107 -0.707107 -0.000000
0.707107 0.000000 -0.707107
-0.707107 -0.000000 0.707107
0.707107 0.707107 0.000000
-0.707107 -0.707107 -0.000000
-0.000000 -0.707107 -0.707107
0.000000 0.707107 0.707107
-0.707107 -0.000000 -0.707107
0.707107 -0.000000 0.707107
0.707107 -0.000000 0.707107
0.707107 -0.000000 0.707107
-0.707107 0.000000 -0.707107
-0.707107 -0.707107 -0.000000
0.707107 0.707107 -0.000000
-0.707107 0.000000 -0.707107
0.707107 -0.000000 0.707107
0.707107 0.000000 0.707107
-0.707107 -0.000000 -0.707107
0.000000 -0.707107 -0.707107
-0.000000 0.707107 0.707107
0.707107 0.000000 0.707107
-0.707107 -0.000000 -0.707107
-0.000000 0.707107 0.707107
0.707107 -0.707107 -0.000000
-0.707107 -0.000000 -0.707107
-0.000000 -0.707107 -0.707107
0.000000 0.707107 0.707107
-0.707107 0.000000 -0.707107
0.000000 0.707107 0.707107
0.707107 -0.707107 -0.000000
-0.707107 -0.707107 0.000000
0.707107 0.707107 -0.000000
-0.000000 -0.707107 0.707107
-0.000000 0.707107 -0.707107
0.000000 -0.707107 -0.707107
0.000000 0.707107 0.707107
0.000000 -0.707107 -0.707107
-0.000000 0.707107 0.707107
-0.707107 0.000000 0.707107
0.707107 -0.000000 -0.707107
-0.707107 -0.707107 0.000000
0.000000 0.707107 -0.707107
0.707107 -0.000000 0.707107
-0.000000 -0.707107 -0.707107
-0.000000 0.707107 0.707107
0.707107 -0.000000 -0.707107
-0.707107 -0.000000 -0.707107
0.707107 0.000000 0.707107
-0.707107 0.000000 0.707107
0.000000 -0.707107 0.707107
-0.000000 0.707107 -0.707107
0.707107 0.000000 -0.707107
-0.707107 -0.000000 0.707107
-0.707107 -0.707107 0.000000
0.707107 0.707107 -0.000000
0.707107 0.707107 0.000000
-0.707107 -0.707107 -0.000000
0.707107 -0.707107 0.000000
-0.000000 -0.707107 0.707107
0.000000 0.707107 -0.707107
0.707107 -0.707107 0.000000
-0.707107 0.707107 -0.000000
0.707107 -0.707107 -0.000000
-0.707107 0.707107 -0.000000
0.000000 0.707107 -0.707107
0.000000 -0.707107 0.707107
0.707107 0.000000 -0.707107