# vtk DataFile Version 3.0
Configuration exported from OpenDiS
ASCII
DATASET UNSTRUCTURED_GRID
POINTS 37148 FLOAT
-29412.000000 -29412.000000 -29412.000000
29412.000000 -29412.000000 -29412.000000
-29412.000000 29412.000000 -29412.000000
-29412.000000 -29412.000000 29412.000000
29412.000000 29412.000000 -29412.000000
29412.000000 -29412.000000 29412.000000
-29412.000000 29412.000000 29412.000000
29412.000000 29412.000000 29412.000000
17488.052712 27668.455102 18315.089019
16806.699153 27676.844447 17624.973374
17488.052712 27668.455102 18315.089019
18183.227048 27804.060004 18875.403937
24096.485505 -10097.618517 22556.339770
24937.841993 -10097.618517 21819.909860
24096.485505 -10097.618517 22556.339770
23344.037317 -10097.618517 23217.659342
-27819.178211 -25438.650731 25933.925614
-28212.113517 -25348.541989 25631.095604
-27819.178211 -25438.650731 25933.925614
-27819.178211 -25300.903282 26071.673063
-27819.178211 -25438.650731 25933.925614
-28748.981650 -26294.782094 26007.597689
-25703.371922 18811.901824 -15183.621615
-25703.371922 19482.149178 -15853.868968
-25703.371922 18811.901824 -15183.621615
-25703.371922 17906.342988 -14241.859906
82.200643 -20871.056547 -9578.481611
535.478214 -20831.549574 -9164.711013
82.200643 -20871.056547 -9578.481611
-488.492102 -20910.989159 -10109.241744
-19758.503883 12996.978223 20452.644155
-18783.949757 12547.057299 19928.010953
-19758.503883 12996.978223 20452.644155
-20704.673523 13456.712408 20939.079610
18427.488787 -8459.411373 -26320.034909
17219.722770 -9171.305675 -25824.163195
18427.488787 -8459.411373 -26320.034909
18984.130430 -9456.437174 -26760.419067
18427.488787 -8459.411373 -26320.034909
17381.513521 -7413.436108 -26320.034909
-302.765790 26934.247966 15840.560293
-433.214085 26081.006223 16824.250318
-302.765790 26934.247966 15840.560293
-264.743185 28064.900831 14671.884858
-2575.760403 -12646.285404 8656.154995
-1686.620135 -12646.285404 7767.014727
-2575.760403 -12646.285404 8656.154995
-3358.349972 -12646.285404 9437.921198
9083.962000 29370.303558 9046.689936
9083.962000 28622.924039 9796.537791
9083.962000 29370.303558 9046.689936
9083.962000 29412.000000 9004.953321
9083.962000 -29411.999989 9004.953321
9083.962000 -28733.685764 8325.985548
-25773.624031 20180.445520 -27520.310380
-26729.666887 19607.526142 -27903.433858
-25773.624031 20180.445520 -27520.310380
-24736.508431 20864.378330 -27167.127590
-5510.977186 16155.598519 2872.575875
-5106.930436 15269.101082 4163.120062
-5510.977186 16155.598519 2872.575875
-5971.716407 16855.168273 1712.266899
-20883.960763 1084.918064 6323.382372
-20472.764628 1949.263694 5870.232877
-20883.960763 1084.918064 6323.382372
-21276.874356 197.354512 6818.032331
-22909.727466 12516.617366 26956.565413
-22610.071728 12159.675900 26899.279685
-22909.727466 12516.617366 26956.565413
-23342.211668 12904.536509 26912.000354
8135.427243 -6553.448804 -19836.178110
8624.106257 -7619.433996 -20413.484288
8135.427243 -6553.448804 -19836.178110
7696.546541 -5634.063097 -19355.673105
-10212.346210 4663.138078 15442.349538
-10852.654888 3864.454795 15283.974934
-10212.346210 4663.138078 15442.349538
-9531.702652 5483.652182 15582.220084
-15167.815763 -24355.073171 13311.400038
-14135.047560 -24623.708556 14075.532855
-15167.815763 -24355.073171 13311.400038
-16201.545039 -24077.439487 12555.304446
-21926.469518 -1210.173745 8521.738954
-21905.927996 -875.753112 8166.776798
-21926.469518 -1210.173745 8521.738954
-21858.120005 -1911.436824 9154.652519
863.401070 15834.562915 1313.402688
1631.279873 15797.020585 507.981555
863.401070 15834.562915 1313.402688
170.310018 15905.981386 2077.912210
-9566.048045 16864.142449 -11961.616581
-10353.296440 17643.203899 -11969.803526
-9566.048045 16864.142449 -11961.616581
-8922.331487 16075.589935 -12106.452537
27035.315162 -22796.298616 -13844.856403
28251.909076 -22695.685659 -14960.837361
27035.315162 -22796.298616 -13844.856403
25823.255229 -23068.460631 -12904.958485
23928.130051 1494.361866 3957.969633
24669.764470 1310.158609 3400.538472
23928.130051 1494.361866 3957.969633
23143.341197 1663.097757 4574.022596
16109.487366 27780.844214 -20778.212846
16168.918433 27787.624703 -20830.863423
16109.487366 27780.844214 -20778.212846
15714.309404 27800.776938 -21153.458085
16109.487366 27780.844214 -20778.212846
15674.940718 27354.804698 -20769.705713
27925.595950 -11352.124611 28175.045687
28443.665920 -11661.396769 29002.387815
27925.595950 -11352.124611 28175.045687
27607.107109 -11142.239344 27646.671580
-28350.464773 -13796.751345 574.034598
-27704.109077 -13957.711182 88.638738
-28350.464773 -13796.751345 574.034598
-29199.632252 -13523.491609 1149.942341
17918.646660 -19532.964394 14547.665123
17139.364863 -20073.705837 14786.205477
17918.646660 -19532.964394 14547.665123
18749.196383 -18957.309108 14292.770685
-17670.111737 372.629463 10315.097000
-17964.154901 1076.503270 9317.180029
-17670.111737 372.629463 10315.097000
-17348.602724 -168.387982 11177.623459
-27084.962152 -19475.927421 -7847.343060
-27596.635663 -18998.411694 -7881.500846
-27084.962152 -19475.927421 -7847.343060
-26068.075706 -20304.797027 -7659.326220
-9819.152876 27245.899087 -27204.744237
-10047.135870 27644.361580 -27375.219789
-9819.152876 27245.899087 -27204.744237
-9057.332801 26018.443891 -26739.108549
27425.073176 -20492.943479 -2751.769991
27668.199258 -19116.752447 -1618.705043
27425.073176 -20492.943479 -2751.769991
26572.947343 -21959.907993 -3366.608673
-20532.645105 -22233.890232 1106.530866
-21184.764074 -21321.589692 1366.712437
-20532.645105 -22233.890232 1106.530866
-19811.094915 -22912.030061 1149.941226
-21476.498954 -8436.391021 27380.056885
-22193.376370 -9153.268437 27380.056885
-21476.498954 -8436.391021 27380.056885
-20760.607250 -7720.499318 27380.056885
-16876.710600 24262.056682 -15985.909837
-17438.282684 24262.056682 -16545.873428
-16876.710600 24262.056682 -15985.909837
-16015.042131 24262.056682 -15118.400539
-3996.908550 -9379.985086 22209.159520
-5170.203684 -10090.694980 21746.574281
-3996.908550 -9379.985086 22209.159520
-2522.191881 -9153.284184 23457.175288
9604.402784 -26467.750164 -5300.519285
8640.376310 -26098.347163 -4705.895812
9604.402784 -26467.750164 -5300.519285
9917.025175 -26550.676687 -5530.215154
6562.935269 10290.783047 -22289.807939
6162.499993 10316.109449 -21864.046260
6562.935269 10290.783047 -22289.807939
7175.410410 10416.341979 -22776.724148
-17153.454781 -22111.358626 -11782.627663
-16395.981760 -22111.358626 -12540.087444
-17153.454781 -22111.358626 -11782.627663
-18039.726021 -22111.380433 -10896.334622
13703.830558 15300.420633 7655.882144
14746.138503 14809.954343 7104.040489
13703.830558 15300.420633 7655.882144
12680.733510 15764.752983 8214.646842
-22910.339266 -19516.434569 14866.243197
-23968.903647 -19044.869471 14279.243914
-22910.339266 -19516.434569 14866.243197
-21877.954273 -20098.793973 15316.268786
-13210.437803 -17376.759304 -15111.389347
-12819.293973 -17510.145473 -14853.631686
-13210.437803 -17376.759304 -15111.389347
-13221.729602 -18608.230236 -16354.152077
-13210.437803 -17376.759304 -15111.389347
-14090.008265 -16939.817313 -15554.017818
7503.608680 -12489.005298 25967.987936
7975.652448 -11992.669146 25992.280320
7503.608680 -12489.005298 25967.987936
7716.907241 -12439.371499 26230.920296
7503.608680 -12489.005298 25967.987936
7261.637251 -12728.392035 25970.572629
7503.608680 -12489.005298 25967.987936
7287.227046 -12533.609082 25707.002519
2060.061326 -19845.539787 -4980.218651
2060.061326 -20306.579684 -5441.258548
2060.061326 -19845.539787 -4980.218651
2060.061326 -19544.624563 -4679.303428
28793.428550 -20097.723041 6893.234574
27783.282337 -20149.051070 5934.416391
28793.428550 -20097.723041 6893.234574
29411.999997 -20125.561238 7539.644219
-29411.999991 -20125.561238 7539.644219
-28873.957984 -20149.775288 8101.900288
-22223.677548 -6325.875587 10652.967399
-22659.980194 -6118.319435 10881.713893
-22223.677548 -6325.875587 10652.967399
-21410.049264 -6681.510387 10194.973915
-4802.492282 25793.569099 -23981.368673
-5613.467185 26604.543946 -23981.368673
-4802.492282 25793.569099 -23981.368673
-3967.269318 24958.346129 -23981.368673
21274.564316 9943.235128 3554.671007
21305.924673 9493.040222 3073.115743
21274.564316 9943.235128 3554.671007
20986.254757 10887.066570 4786.812008
-14612.593514 -28035.767408 17718.905145
-14362.224910 -27200.000038 16632.769171
-14612.593514 -28035.767408 17718.905145
-14086.502426 -29292.750085 18449.796734
-14612.593514 -28035.767408 17718.905145
-15295.864865 -27671.304466 18037.713557
-17223.280477 20099.013757 -20496.205965
-17442.482491 20099.013757 -20715.638502
-17223.280477 20099.013757 -20496.205965
-16757.165534 20099.013757 -20030.094208
-6519.688831 -12473.496178 -23538.626530
-6519.688831 -11819.062145 -24198.922234
-6519.688831 -12473.496178 -23538.626530
-6519.688831 -13337.593942 -22661.979459
-18502.299815 6586.231279 -10182.070772
-17849.850258 6552.973909 -10867.777699
-18502.299815 6586.231279 -10182.070772
-19002.016373 6624.095619 -9644.489874
-10144.363005 1637.726551 17315.619909
-10516.923501 618.482711 18707.424245
-10144.363005 1637.726551 17315.619909
-10036.681464 1886.337218 16959.327701
13506.908818 25590.954799 -23186.555885
13480.218454 25306.932938 -22929.224387
13506.908818 25590.954799 -23186.555885
14644.735971 26728.781952 -23186.555885
13506.908818 25590.954799 -23186.555885
13331.926878 25826.398751 -22776.129993
23661.175538 -27304.844994 -17070.136622
23302.822920 -28179.591395 -16553.742838
23661.175538 -27304.844994 -17070.136622
24143.707444 -26283.035167 -17609.414543
-1881.727038 -28306.839869 22645.722064
-2362.694036 -27410.060193 23061.534741
-1881.727038 -28306.839869 22645.722064
-1396.093871 -29210.748723 22227.446377
8563.644455 -5529.526842 -6695.997337
8237.474640 -6094.193507 -7586.833818
8563.644455 -5529.526842 -6695.997337
8723.239341 -5152.835435 -6159.711044
-26276.545755 -20861.202780 -27034.226718
[...]
CELL_DATA 18571
VECTORS Burgers FLOAT
0.000000 0.000000 0.000000
0.000000 0.707107 -0.707107
-0.000000 -0.707107 0.707107
-0.707107 -0.000000 -0.707107
0.707107 0.000000 0.707107
0.707107 -0.707107 0.000000
-0.707107 0.000000 -0.707107
-0.000000 0.707107 0.707107
0.000000 0.707107 0.707107
-0.000000 -0.707107 -0.707107
0.000000 -0.707107 0.707107
-0.000000 0.707107 -0.707107
-0.707107 0.707107 0.000000
0.707107 -0.707107 -0.000000
-0.707107 0.000000 0.707107
0.000000 -0.707107 -0.707107
0.707107 0.707107 -0.000000
-0.707107 -0.000000 0.707107
0.707107 0.000000 -0.707107
-0.707107 0.000000 -0.707107
0.707107 0.000000 0.707107
0.000000 -0.707107 -0.707107
-0.000000 0.707107 0.707107
-0.000000 0.707107 0.707107
0.707107 0.000000 0.707107
-0.707107 -0.000000 -0.707107
0.707107 -0.000000 0.707107
-0.707107 0.000000 -0.707107
0.000000 -0.707107 0.707107
-0.000000 0.707107 -0.707107
0.707107 0.000000 0.707107
-0.707107 -0.000000 -0.707107
-0.707107 0.707107 0.000000
0.707107 -0.707107 -0.000000
0.707107 0.707107 0.000000
-0.707107 -0.707107 -0.000000
0.707107 -0.707107 -0.000000
-0.707107 0.707107 0.000000
-0.000000 -0.707107 0.707107
0.000000 0.707107 -0.707107
0.707107 0.707107 0.000000
-0.707107 -0.707107 -0.000000
0.000000 -0.707107 -0.707107
-0.000000 0.707107 0.707107
-0.707107 0.000000 0.707107
0.707107 -0.000000 -0.707107
0.000000 0.707107 -0.707107
-0.000000 -0.707107 0.707107
-0.707107 0.000000 0.707107
0.000000 -0.707107 -0.707107
0.707107 0.707107 0.000000
-0.707107 -0.707107 -0.000000
0.707107 0.707107 0.000000
0.707107 0.000000 -0.707107
-0.707107 -0.000000 0.707107
0.707107 0.707107 0.000000
-0.707107 -0.707107 -0.000000
0.000000 -0.707107 0.707107
-0.000000 0.707107 -0.707107
0.707107 0.000000 0.707107
-0.707107 -0.000000 -0.707107
0.707107 -0.707107 0.000000
-0.707107 0.707107 -0.000000
0.707107 -0.000000 -0.707107
-0.707107 0.000000 0.707107
0.707107 0.000000 0.707107
-0.707107 -0.000000 -0.707107
-0.707107 0.707107 0.000000
0.707107 -0.707107 -0.000000
0.707107 -0.000000 -0.707107
-0.707107 -0.000000 0.707107
-0.000000 0.707107 -0.707107
0.000000 -0.707107 0.707107
0.000000 -0.707107 0.707107
-0.000000 0.707107 -0.707107
-0.000000 0.707107 0.707107
0.000000 -0.707107 -0.707107
-0.707107 0.000000 -0.707107
0.707107 -0.000000 0.707107
-0.707107 0.707107 -0.000000
0.707107 -0.707107 0.000000
-0.707107 -0.000000 -0.707107
0.707107 0.000000 0.707107
0.707107 -0.707107 -0.000000
-0.000000 0.707107 0.707107
-0.707107 -0.000000 -0.707107
0.707107 0.000000 -0.707107
0.707107 -0.707107 -0.000000
-0.707107 -0.000000 0.707107
-0.707107 0.707107 0.000000
0.000000 0.707107 -0.707107
-0.000000 -0.707107 0.707107
-0.707107 -0.707107 0.000000
0.707107 0.707107 -0.000000
0.707107 0.707107 -0.000000
0.707107 -0.707107 0.000000
-0.707107 0.707107 -0.000000
-0.707107 -0.707107 0.000000
0.707107 0.707107 -0.000000
0.000000 0.707107 0.707107
-0.000000 -0.707107 -0.707107
-0.707107 0.707107 -0.000000
0.707107 -0.000000 -0.707107
0.000000 -0.707107 0.707107
0.707107 0.000000 -0.707107
-0.707107 -0.000000 0.707107
-0.000000 0.707107 0.707107
-0.000000 -0.707107 -0.707107
-0.707107 -0.707107 -0.000000
0.707107 0.707107 -0.000000
0.000000 0.707107 -0.707107
-0.000000 -0.707107 0.707107
-0.707107 -0.000000 -0.707107
0.707107 -0.707107 0.000000
0.000000 0.707107 0.707107
0.707107 0.707107 0.000000
-0.707107 -0.707107 -0.000000
0.707107 -0.707107 -0.000000
-0.707107 0.707107 0.000000
0.707107 0.000000 0.707107
-0.707107 -0.000000 -0.707107
0.707107 -0.000000 -0.707107
-0.707107 0.000000 0.707107
0.000000 0.707107 0.707107
-0.000000 -0.707107 -0.707107
0.000000 -0.707107 0.707107
-0.000000 0.707107 0.707107
0.000000 -0.707107 -0.707107
-0.000000 0.707107 -0.707107
0.000000 0.707107 -0.707107
-0.000000 -0.707107 0.707107
0.000000 0.707107 0.707107
-0.000000 -0.707107 -0.707107
0.000000 -0.707107 -0.707107
-0.000000 0.707107 0.707107
-0.707107 -0.707107 0.000000
0.707107 0.707107 -0.000000
-0.707107 0.000000 0.707107
0.707107 -0.000000 -0.707107
0.707107 0.000000 -0.707107
-0.707107 -0.000000 0.707107
-0.000000 0.707107 -0.707107
0.000000 -0.707107 0.707107
0.707107 -0.707107 0.000000
-0.707107 0.707107 0.000000
-0.707107 0.000000 -0.707107
0.707107 -0.000000 0.707107
0.707107 0.000000 0.707107
-0.707107 -0.000000 -0.707107
0.707107 0.000000 0.707107
-0.707107 -0.000000 -0.707107
-0.707107 0.707107 0.000000
0.707107 -0.707107 -0.000000
0.707107 0.707107 -0.000000
-0.707107 -0.707107 0.000000
-0.707107 0.707107 0.000000
0.707107 -0.707107 -0.000000
-0.000000 0.707107 -0.707107
0.000000 -0.707107 0.707107
-0.000000 -0.707107 0.707107
0.707107 0.707107 0.000000
-0.707107 0.000000 -0.707107
0.000000 -0.707107 0.707107
-0.000000 0.707107 -0.707107
0.707107 0.000000 0.707107
-0.707107 -0.000000 -0.707107
0.000000 0.707107 0.707107
-0.000000 -0.707107 -0.707107
0.707107 -0.000000 0.707107
-0.707107 0.000000 -0.707107
-0.707107 0.707107 -0.000000
0.707107 -0.707107 0.000000
-0.707107 -0.000000 -0.707107
0.707107 -0.000000 0.707107
0.707107 0.000000 0.707107
-0.707107 -0.000000 -0.707107
-0.707107 0.000000 -0.707107
0.707107 -0.000000 0.707107
-0.707107 -0.707107 0.000000
-0.707107 -0.707107 0.000000
0.707107 0.707107 -0.000000
-0.707107 0.707107 -0.000000
0.707107 -0.707107 0.000000
0.707107 0.000000 -0.707107
0.000000 0.707107 0.707107
-0.707107 -0.707107 0.000000
-0.707107 -0.000000 0.707107
0.707107 0.000000 -0.707107
-0.707107 0.000000 0.707107
0.707107 -0.000000 -0.707107
-0.707107 0.000000 -0.707107
0.707107 -0.000000 0.707107
-0.000000 0.707107 0.707107
0.000000 -0.707107 -0.707107
-0.707107 -0.000000 0.707107
0.000000 -0.707107 -0.707107
0.707107 0.707107 0.000000
0.707107 -0.000000 -0.707107
-0.707107 0.000000 0.707107
-0.707107 0.000000 -0.707107
0.707107 -0.000000 0.707107
0.000000 -0.707107 -0.707107
-0.000000 0.707107 0.707107
-0.000000 -0.707107 -0.707107
0.000000 0.707107 0.707107
-0.707107 -0.707107 0.000000
0.707107 0.707107 -0.000000
-0.000000 0.707107 0.707107
0.000000 -0.707107 -0.707107
0.000000 -0.707107 -0.707107
-0.000000 0.707107 0.707107
0.000000 -0.707107 -0.707107
-0.000000 0.707107 0.707107
0.000000 1.414214 -0.000000
-0.000000 -1.414214 0.000000
-0.000000 -0.707107 -0.707107
0.000000 0.707107 0.707107
-0.000000 0.707107 -0.707107
0.000000 -0.707107 0.707107
0.707107 -0.707107 0.000000
-0.707107 0.707107 -0.000000
0.000000 -0.707107 0.707107
-0.000000 0.707107 -0.707107
-0.000000 0.707107 -0.707107
0.707107 -0.000000 0.707107
-0.707107 -0.000000 -0.707107
-0.707107 0.000000 -0.707107
0.707107 -0.000000 0.707107
0.707107 0.000000 -0.707107
-0.707107 0.000000 0.707107
-0.707107 -0.707107 -0.000000
0.707107 0.707107 -0.000000
-0.707107 -0.000000 -0.707107
0.707107 0.000000 0.707107
0.707107 0.707107 -0.000000
-0.707107 -0.707107 -0.000000
0.707107 0.000000 -0.707107
-0.707107 -0.000000 0.707107
0.707107 0.000000 -0.707107
-0.707107 -0.000000 0.707107
0.707107 0.707107 0.000000
-0.707107 -0.707107 -0.000000
-0.707107 -0.000000 0.707107
0.707107 0.000000 -0.707107
-0.000000 -0.707107 0.707107
0.000000 0.707107 -0.707107
-0.707107 0.000000 -0.707107
0.707107 -0.000000 0.707107
-0.707107 -0.000000 0.707107
0.707107 0.000000 -0.707107
0.000000 -0.707107 -0.707107
-0.000000 0.707107 0.707107
-0.707107 -0.707107 0.000000
0.707107 0.707107 -0.000000
0.000000 0.707107 0.707107
-0.000000 -0.707107 -0.707107
-0.707107 0.707107 0.000000
0.707107 -0.707107 -0.000000
0.707107 0.707107 0.000000
-0.707107 0.000000 -0.707107
0.000000 -0.707107 0.707107
-0.707107 -0.707107 0.000000
0.707107 0.707107 -0.000000
0.000000 0.707107 -0.707107
-0.000000 -0.707107 0.707107
-0.000000 -0.707107 -0.707107
0.000000 0.707107 0.707107
0.707107 -0.000000 -0.707107
-0.707107 0.000000 0.707107
0.000000 0.707107 -0.707107
-0.000000 -0.707107 0.707107
-0.000000 0.707107 -0.707107
0.000000 -0.707107 0.707107
-0.000000 0.707107 -0.707107
0.000000 -0.707107 0.707107
0.000000 -0.707107 -0.707107
-0.000000 0.707107 0.707107
-0.707107 0.707107 -0.000000
0.707107 -0.707107 0.000000
-0.707107 0.707107 0.000000
0.707107 -0.707107 0.000000
-0.707107 0.000000 0.707107
0.707107 -0.000000 -0.707107
0.000000 0.707107 -0.707107
-0.000000 -0.707107 0.707107
-0.000000 -0.707107 -0.707107
-0.000000 0.707107 0.707107
0.707107 0.000000 0.707107
-0.707107 -0.000000 -0.707107
0.000000 0.707107 -0.707107
-0.000000 -0.707107 0.707107
0.000000 -0.707107 0.707107
0.707107 0.707107 0.000000
-0.707107 -0.000000 -0.707107
0.707107 -0.707107 0.000000
-0.707107 0.707107 -0.000000
-0.000000 -0.707107 -0.707107
0.000000 0.707107 0.707107
0.707107 0.000000 -0.707107
-0.707107 0.000000 0.707107
0.707107 -0.000000 -0.707107
-0.707107 0.000000 0.707107
0.000000 -0.707107 -0.707107
-0.000000 0.707107 0.707107
-0.707107 -0.707107 -0.000000
0.707107 0.000000 0.707107
0.000000 0.707107 -0.707107
-0.000000 0.707107 0.707107
0.000000 -0.707107 -0.707107
-0.707107 -0.000000 -0.707107
0.707107 0.000000 0.707107
-0.000000 0.707107 0.707107
0.707107 -0.000000 -0.707107
-0.707107 -0.707107 0.000000
-0.707107 0.000000 0.707107
0.707107 -0.000000 -0.707107
-0.000000 0.707107 0.707107
0.000000 -0.707107 -0.707107
-0.707107 0.000000 -0.707107
0.000000 -0.707107 0.707107
0.707107 0.707107 -0.000000
0.000000 -0.707107 -0.707107
-0.000000 0.707107 0.707107
-0.000000 -0.707107 -0.707107
0.000000 0.707107 0.707107
0.707107 0.707107 0.000000
-0.707107 -0.707107 -0.000000
0.000000 0.707107 0.707107
0.000000 -0.707107 -0.707107
-0.707107 0.000000 -0.707107
0.707107 -0.000000 0.707107
0.707107 0.707107 0.000000
-0.707107 -0.707107 -0.000000
-0.707107 -0.707107 -0.000000
0.707107 0.000000 0.707107
-0.707107 -0.000000 -0.707107
-0.707107 0.707107 -0.000000
0.707107 -0.707107 0.000000
-0.707107 0.707107 0.000000
0.707107 -0.707107 -0.000000
0.707107 0.000000 -0.707107
-0.707107 -0.000000 0.707107
0.000000 -0.707107 0.707107
-0.707107 -0.707107 0.000000
0.707107 0.707107 -0.000000
-0.707107 0.000000 -0.707107
0.707107 -0.000000 0.707107
-0.000000 0.707107 -0.707107
0.000000 -0.707107 0.707107
0.000000 -0.707107 -0.707107
-0.000000 0.707107 0.707107
0.707107 0.000000 -0.707107
-0.707107 -0.000000 0.707107
0.000000 -0.707107 0.707107
-0.000000 0.707107 -0.707107
-0.707107 -0.000000 0.707107
0.707107 0.000000 -0.707107
-0.707107 -0.000000 -0.707107
0.707107 0.000000 0.707107
0.000000 -0.707107 -0.707107
0.000000 0.707107 0.707107
-0.707107 0.000000 -0.707107
0.707107 -0.000000 0.707107
0.707107 -0.707107 0.000000
-0.707107 0.707107 -0.000000
-0.000000 0.707107 -0.707107
-0.707107 -0.707107 -0.000000
0.707107 0.000000 0.707107
-0.707107 0.000000 -0.707107
0.000000 -0.707107 0.707107
0.707107 0.707107 0.000000
-0.707107 0.000000 -0.707107
0.707107 0.000000 0.707107
-0.707107 0.000000 0.707107
0.707107 -0.000000 -0.707107
-0.707107 0.707107 0.000000
0.707107 -0.000000 -0.707107
-0.000000 -0.707107 0.707107
-0.000000 -1.414214 -0.000000
0.000000 1.414214 0.000000
0.707107 -0.000000 0.707107
-0.707107 0.000000 -0.707107
-0.707107 -0.000000 0.707107
0.707107 0.000000 -0.707107
0.707107 0.000000 -0.707107
0.707107 0.000000 0.707107
-0.707107 -0.000000 -0.707107
-0.707107 0.707107 0.000000
0.707107 -0.707107 -0.000000
0.707107 0.000000 -0.707107
-0.707107 -0.000000 0.707107
0.707107 0.000000 0.707107
-0.707107 -0.000000 -0.707107
0.000000 0.707107 0.707107
-0.000000 -0.707107 -0.707107
0.707107 0.000000 -0.707107
-0.707107 -0.000000 0.707107
0.000000 0.707107 -0.707107
-0.000000 -0.707107 0.707107
-0.000000 0.707107 -0.707107
0.000000 -0.707107 0.707107
0.707107 0.000000 0.707107
-0.707107 -0.000000 -0.707107
-0.000000 0.707107 0.707107
0.000000 -0.707107 -0.707107
0.000000 0.707107 0.707107
-0.707107 0.000000 0.707107
0.707107 -0.000000 -0.707107
-0.707107 0.707107 0.000000
0.707107 -0.707107 -0.000000
-0.707107 -0.000000 0.707107
0.707107 0.000000 -0.707107
-0.000000 0.707107 -0.707107
0.000000 -0.707107 0.707107
0.707107 -0.707107 0.000000
-0.707107 0.707107 -0.000000
-0.707107 0.000000 -0.707107
0.707107 -0.000000 0.707107
0.707107 -0.000000 -0.707107
0.707107 -0.000000 0.707107
-0.707107 0.000000 -0.707107
0.707107 0.000000 -0.707107
-0.707107 0.000000 -0.707107
0.000000 -0.000000 1.414214
0.707107 -0.707107 0.000000
-0.707107 0.707107 -0.000000
-0.707107 0.707107 0.000000
0.707107 -0.707107 -0.000000
0.707107 0.000000 0.707107
-0.707107 -0.000000 -0.707107
-0.707107 -0.000000 -0.707107
0.707107 0.000000 0.707107
0.000000 0.707107 0.707107
-0.000000 -0.707107 -0.707107
0.707107 -0.707107 0.000000
-0.707107 0.707107 -0.000000
0.707107 0.707107 0.000000
-0.707107 -0.707107 -0.000000
-0.000000 -0.707107 -0.707107
0.000000 0.707107 0.707107
-0.000000 -0.707107 0.707107
0.000000 0.707107 -0.707107
0.000000 -0.707107 -0.707107
-0.000000 0.707107 0.707107
-0.000000 -0.707107 0.707107
0.000000 0.707107 -0.707107
0.707107 0.707107 0.000000
-0.707107 -0.707107 -0.000000
0.000000 0.707107 0.707107
-0.000000 -0.707107 -0.707107
0.707107 -0.707107 0.000000
-0.707107 0.707107 -0.000000
-0.000000 0.707107 -0.707107
0.000000 -0.707107 0.707107
0.000000 -0.707107 0.707107
-0.000000 0.707107 -0.707107
-0.707107 -0.000000 -0.707107
-0.707107 -0.000000 -0.707107
0.707107 0.000000 0.707107
-0.707107 -0.000000 0.707107
0.707107 0.000000 -0.707107
0.707107 0.000000 0.707107
-0.707107 -0.000000 -0.707107
-0.000000 0.707107 0.707107
-0.000000 -0.707107 -0.707107
-0.707107 -0.707107 0.000000
0.707107 0.707107 -0.000000
-0.707107 -0.707107 0.000000
0.707107 0.707107 -0.000000
-0.707107 0.000000 -0.707107
0.707107 -0.000000 0.707107
-0.707107 0.000000 -0.707107
0.707107 -0.707107 0.000000
-0.000000 0.707107 0.707107
-0.707107 0.707107 0.000000
-0.707107 0.707107 0.000000
0.707107 -0.707107 -0.000000
0.707107 0.000000 -0.707107
-0.707107 -0.000000 0.707107
-0.707107 -0.000000 -0.707107
0.707107 0.000000 0.707107
-0.707107 0.000000 -0.707107
0.707107 -0.000000 0.707107
-0.000000 -0.707107 0.707107
0.000000 0.707107 -0.707107
0.707107 -0.707107 -0.000000
-0.707107 0.707107 0.000000
-0.000000 0.707107 0.707107
0.707107 0.000000 -0.707107
-0.707107 -0.707107 -0.000000
-0.707107 0.707107 -0.000000
0.707107 -0.707107 0.000000
-0.707107 0.707107 -0.000000
0.000000 -0.707107 -0.707107
0.707107 -0.000000 0.707107
0.000000 -0.707107 0.707107
-0.000000 0.707107 -0.707107
0.707107 0.707107 -0.000000
-0.707107 -0.707107 0.000000
-0.000000 0.707107 0.707107
0.000000 -0.707107 -0.707107
-0.707107 0.000000 0.707107
0.707107 -0.000000 -0.707107
0.707107 -0.000000 -0.707107
-0.707107 -0.000000 0.707107
0.000000 0.707107 0.707107
-0.000000 -0.707107 -0.707107
-0.707107 -0.707107 0.000000
0.707107 0.707107 -0.000000
0.707107 -0.000000 0.707107
-0.707107 0.000000 -0.707107
-0.707107 0.000000 -0.707107
0.000000 -0.707107 -0.707107
-0.000000 0.707107 0.707107
-0.707107 0.707107 -0.000000
-0.707107 0.707107 -0.000000
0.707107 -0.707107 0.000000
-0.707107 0.707107 -0.000000
0.707107 -0.707107 0.000000
0.000000 0.707107 -0.707107
-0.000000 -0.707107 0.707107
0.000000 -0.707107 0.707107
-0.000000 0.707107 -0.707107
-0.707107 -0.000000 -0.707107
-0.707107 -0.000000 -0.707107
0.707107 0.000000 0.707107
0.707107 0.000000 0.707107
-0.707107 -0.000000 -0.707107
0.000000 -0.707107 -0.707107
-0.000000 0.707107 0.707107
-0.707107 -0.707107 -0.000000
0.707107 0.707107 0.000000
-0.707107 0.000000 -0.707107
0.707107 -0.000000 0.707107
-0.707107 0.000000 0.707107
0.707107 -0.000000 -0.707107
-0.707107 -0.000000 0.707107
0.707107 0.707107 -0.000000
-0.000000 -0.707107 -0.707107
-0.707107 0.000000 0.707107
-0.707107 0.000000 0.707107
0.707107 -0.000000 -0.707107
-0.707107 0.000000 -0.707107
0.707107 -0.707107 0.000000
-0.000000 0.707107 0.707107
0.707107 0.000000 0.707107
-0.707107 -0.000000 -0.707107
-0.707107 -0.000000 0.707107
0.707107 0.000000 -0.707107
0.707107 0.000000 0.707107
0.000000 -0.707107 -0.707107
-0.707107 0.707107 -0.000000
-0.707107 -0.707107 0.000000
0.707107 0.707107 -0.000000
0.707107 -0.000000 0.707107
-0.707107 0.000000 -0.707107
0.000000 0.707107 -0.707107
-0.000000 -0.707107 0.707107
0.000000 0.707107 -0.707107
-0.000000 -0.707107 0.707107
-0.707107 0.000000 -0.707107
0.707107 -0.000000 0.707107
0.707107 -0.000000 0.707107
-0.707107 -0.000000 -0.707107
0.000000 0.707107 0.707107
0.707107 -0.707107 0.000000
0.707107 0.000000 -0.707107
-0.707107 -0.000000 0.707107
-0.707107 0.707107 0.000000
0.707107 -0.707107 -0.000000
-0.707107 -0.000000 0.707107
0.707107 0.000000 -0.707107
-0.707107 0.000000 0.707107
0.707107 -0.000000 -0.707107
0.707107 -0.707107 -0.000000
-0.707107 0.707107 0.000000
0.707107 -0.000000 0.707107
-0.707107 0.000000 -0.707107
0.000000 -0.707107 0.707107
0.707107 0.707107 0.000000
-0.707107 -0.000000 -0.707107
0.707107 0.707107 -0.000000
-0.707107 -0.707107 0.000000
-0.707107 0.707107 -0.000000
0.707107 -0.707107 0.000000
0.707107 0.000000 0.707107
-0.707107 -0.000000 -0.707107
0.707107 0.707107 -0.000000
-0.707107 0.000000 -0.707107
0.000000 -0.707107 0.707107
-0.707107 0.707107 0.000000
0.707107 -0.707107 -0.000000
0.000000 -0.707107 -0.707107
-0.000000 0.707107 0.707107
0.707107 0.000000 0.707107
-0.707107 -0.000000 -0.707107
-0.000000 0.707107 0.707107
0.000000 -0.707107 -0.707107
0.000000 -0.707107 -0.707107
-0.000000 0.707107 0.707107
0.707107 -0.707107 -0.000000
-0.707107 0.707107 0.000000
0.707107 -0.000000 0.707107
-0.707107 0.000000 -0.707107
-0.707107 0.000000 0.707107
0.707107 -0.000000 -0.707107
0.707107 0.000000 0.707107
-0.707107 -0.000000 -0.707107
0.707107 0.000000 0.707107
-0.707107 -0.000000 -0.707107
0.000000 -0.707107 -0.707107
-0.000000 0.707107 0.707107
-0.000000 -0.707107 -0.707107
-0.707107 0.000000 0.707107
0.707107 0.707107 0.000000
-0.707107 -0.000000 0.707107
0.707107 0.000000 -0.707107
-0.707107 0.707107 0.000000
0.707107 -0.707107 -0.000000
-0.000000 0.707107 -0.707107
0.000000 -0.707107 0.707107
-0.000000 -0.707107 -0.707107
0.000000 0.707107 0.707107
-0.707107 0.000000 0.707107
0.707107 -0.000000 -0.707107
0.000000 0.707107 0.707107
-0.000000 -0.707107 -0.707107
-0.000000 -0.707107 0.707107
0.000000 0.707107 -0.707107
0.707107 -0.707107 0.000000
-0.707107 0.707107 -0.000000
0.707107 -0.707107 -0.000000
-0.000000 0.707107 0.707107
-0.707107 -0.000000 -0.707107
-0.707107 0.000000 0.707107
0.707107 -0.000000 -0.707107
0.707107 0.707107 0.000000
0.000000 -0.707107 0.707107
-0.707107 -0.000000 -0.707107
-0.707107 -0.707107 0.000000
0.707107 0.707107 -0.000000
0.707107 -0.000000 0.707107
-0.707107 -0.000000 -0.707107
0.707107 0.707107 0.000000
-0.000000 0.707107 0.707107
-0.707107 -0.707107 0.000000
0.000000 -0.707107 -0.707107
0.707107 -0.000000 -0.707107
-0.707107 0.000000 0.707107
0.000000 -0.707107 0.707107
0.000000 0.707107 0.707107
-0.000000 -0.707107 -0.707107
-0.707107 -0.707107 -0.000000
0.707107 0.707107 -0.000000
-0.707107 -0.707107 0.000000
0.707107 0.707107 -0.000000
0.707107 0.707107 -0.000000
-0.707107 -0.707107 0.000000
0.000000 -0.707107 -0.707107
0.707107 0.707107 -0.000000
-0.707107 0.000000 0.707107
0.707107 0.000000 0.707107
-0.707107 -0.000000 -0.707107
-0.707107 0.000000 -0.707107
0.000000 0.707107 0.707107
0.707107 -0.707107 -0.000000
-0.707107 -0.000000 0.707107
0.707107 0.000000 -0.707107
-0.707107 -0.707107 0.000000
0.707107 0.707107 -0.000000
0.707107 -0.707107 0.000000
-0.707107 0.707107 -0.000000
0.707107 0.707107 -0.000000
-0.707107 -0.707107 0.000000
-0.707107 0.707107 -0.000000
0.707107 -0.707107 -0.000000
-0.707107 -0.707107 0.000000
0.707107 0.707107 -0.000000
0.707107 0.000000 0.707107
-0.707107 -0.000000 -0.707107
-0.000000 -0.707107 -0.707107
0.000000 0.707107 0.707107
-0.707107 -0.000000 -0.707107
0.707107 0.000000 0.707107
-0.707107 0.000000 0.707107
0.707107 -0.000000 -0.707107
-0.707107 -0.707107 0.000000
0.707107 0.707107 -0.000000
0.000000 0.707107 -0.707107
-0.000000 -0.707107 0.707107
-0.707107 0.707107 -0.000000
0.707107 -0.707107 0.000000
-0.000000 -0.707107 0.707107
0.000000 0.707107 -0.707107
0.707107 0.707107 0.000000
-0.707107 -0.707107 -0.000000
-0.707107 -0.000000 -0.707107
0.707107 0.000000 0.707107
0.707107 -0.000000 -0.707107
-0.707107 0.000000 0.707107