# vtk DataFile Version 3.0
Configuration exported from OpenDiS
ASCII
DATASET UNSTRUCTURED_GRID
POINTS 42258 FLOAT
-29412.000000 -29412.000000 -29412.000000
29412.000000 -29412.000000 -29412.000000
-29412.000000 29412.000000 -29412.000000
-29412.000000 -29412.000000 29412.000000
29412.000000 29412.000000 -29412.000000
29412.000000 -29412.000000 29412.000000
-29412.000000 29412.000000 29412.000000
29412.000000 29412.000000 29412.000000
28917.633269 -28318.878651 -18836.539956
29004.911369 -28809.006084 -19413.931609
28917.633269 -28318.878651 -18836.539956
29108.786795 -27362.821245 -18071.636075
-12294.549308 15269.899580 -20396.594258
-13191.642999 14499.227389 -20523.015758
-12294.549308 15269.899580 -20396.594258
-12141.033900 15152.936308 -20360.042122
-12294.549308 15269.899580 -20396.594258
-12916.867564 15892.217837 -20396.594258
-27819.178211 -25448.519114 25924.057231
-28212.113517 -25348.541989 25631.095604
-27819.178211 -25448.519114 25924.057231
-27819.178211 -25306.403120 26066.173225
-27819.178211 -25448.519114 25924.057231
-28668.847335 -26298.381994 25923.863475
-493.567799 -7295.856641 -4820.706084
-1298.739238 -5923.184018 -5387.860633
-493.567799 -7295.856641 -4820.706084
13.835203 -7812.992770 -4811.332126
27445.755514 -26478.102827 -8729.630048
27930.848324 -26927.434338 -8729.630048
27445.755514 -26478.102827 -8729.630048
26773.821798 -25782.019216 -8729.630048
19162.764741 8429.906925 -19347.104979
18394.464658 8876.966166 -19668.345820
19162.764741 8429.906925 -19347.104979
20057.526411 7895.735122 -18986.515112
1207.990423 15105.198438 1362.255064
651.342680 16147.716473 1848.125355
1207.990423 15105.198438 1362.255064
1643.355419 14109.773149 802.194770
-8242.176263 -18304.247324 4305.915443
-8945.467993 -18990.433859 4305.915443
-8242.176263 -18304.247324 4305.915443
-7833.558916 -17893.847177 4305.915443
-2555.093047 -12646.285404 8635.341063
-1457.983408 -12646.285404 7525.455691
-2555.093047 -12646.285404 8635.341063
-2935.507719 -12646.285404 9015.276117
-2385.414672 -1224.648846 -10372.922979
-2841.193631 -2096.084492 -9957.266293
-2385.414672 -1224.648846 -10372.922979
-1699.343213 38.300975 -10949.801342
-23608.614463 620.904885 -17295.597653
-23608.615531 1400.617847 -18075.305291
-23608.614463 620.904885 -17295.597653
-23608.613464 -108.739511 -16565.958239
16482.618866 -15801.058654 -18578.145947
17222.415139 -16540.854927 -18578.145947
16482.618866 -15801.058654 -18578.145947
15734.490958 -15052.930747 -18578.145947
15154.452728 19402.469770 13940.877918
15031.956829 19272.170124 14193.673464
15154.452728 19402.469770 13940.877918
15582.877248 20212.130246 12702.792924
1693.497447 -24719.407165 26386.031922
2177.481691 -25730.591740 24890.863101
1693.497447 -24719.407165 26386.031922
1037.238354 -23917.708088 27843.990092
-5295.354025 -5567.671931 -11798.929825
-5295.354025 -4993.535681 -12278.238685
-5295.354025 -5567.671931 -11798.929825
-5295.354025 -6560.361042 -10872.483424
18776.022611 1685.021521 -23915.724912
19394.871100 2162.627477 -24056.967446
18776.022611 1685.021521 -23915.724912
18776.022611 1453.815410 -24146.931023
18776.022611 1685.021521 -23915.724912
19393.804815 2069.986661 -22912.977567
25902.924251 16517.421519 8568.479663
25242.434641 17175.300712 8565.869245
25902.924251 16517.421519 8568.479663
26742.157858 15684.152663 8574.444414
-25361.546544 -17046.670022 25659.031100
-26602.303287 -17069.916263 24441.520597
-25361.546544 -17046.670022 25659.031100
-24611.921201 -17022.518250 26384.504670
17592.624646 -20225.041199 -7232.974616
18214.782305 -19881.613782 -6267.389540
17592.624646 -20225.041199 -7232.974616
17087.337908 -20494.501636 -8007.721791
-23455.420694 14626.775914 28804.792425
-23022.638637 14464.775181 28534.011102
-23455.420694 14626.775914 28804.792425
-24507.718955 15110.991290 29372.875310
-7762.935824 -14917.212739 -10795.925205
-8089.594715 -13964.360267 -10169.731625
-7762.935824 -14917.212739 -10795.925205
-8034.099047 -16095.900521 -12245.776210
27080.016317 -22358.188381 14917.018915
26386.632745 -23146.947376 14821.643492
27080.016317 -22358.188381 14917.018915
26075.091834 -21346.084847 14924.197966
-21637.334589 -1788.625244 -15421.892521
-22232.772994 -2600.963471 -15638.792343
-21637.334589 -1788.625244 -15421.892521
-20649.972411 -1788.625244 -16409.254699
-21637.334589 -1788.625244 -15421.892521
-22258.487763 -1377.931630 -15211.432962
-17016.530705 2852.060353 25399.814669
-17109.268452 3574.904945 24584.232330
-17016.530705 2852.060353 25399.814669
-17016.530705 3506.616850 26054.371167
-17016.530705 2852.060353 25399.814669
-16953.431651 2117.549313 24602.204576
-14432.092197 14178.055347 12551.222960
-13410.219020 13156.182170 12551.222960
-14432.092197 14178.055347 12551.222960
-15243.967505 14989.930655 12551.222960
20598.713339 -20586.433429 10814.129409
20047.285675 -20935.470912 11016.519590
20598.713339 -20586.433429 10814.129409
21249.518337 -20181.612097 10568.145744
12423.703582 -11072.111482 -4638.118929
12799.419664 -11862.509264 -5804.232793
12423.703582 -11072.111482 -4638.118929
12783.942003 -10316.565558 -4242.811427
12423.703582 -11072.111482 -4638.118929
12694.136092 -11194.426500 -4490.001437
27194.754295 20910.642853 24685.100254
27638.152445 20910.642853 25171.956820
27194.754295 20910.642853 24685.100254
27960.971828 21693.309353 24701.549221
-9815.383260 27193.104450 -27155.719215
-10047.137843 27644.361580 -27375.221762
-9815.383260 27193.104450 -27155.719215
-9166.297909 26018.443891 -26630.142791
-15816.741357 3451.975030 -26483.151354
-15434.299406 3779.452241 -26428.186613
-15816.741357 3451.975030 -26483.151354
-15816.708695 3497.840101 -26529.048733
-15816.741357 3451.975030 -26483.151354
-15397.300009 2818.099347 -26268.651692
-15816.741357 3451.975030 -26483.151354
-15816.706679 3237.508033 -26268.649678
-20181.779052 -22073.288175 1617.998975
-20252.990396 -21198.797284 2421.278523
-20181.779052 -22073.288175 1617.998975
-19811.094915 -22912.030061 1149.941226
-28129.193974 -28269.844183 -25445.653602
-28733.028993 -27461.480764 -25241.125201
-28129.193974 -28269.844183 -25445.653602
-27678.506973 -28802.724228 -25527.846645
-4681.744768 -26544.451305 21608.101928
-5358.391506 -26356.913633 21118.998989
-4681.744768 -26544.451305 21608.101928
-3900.701587 -26356.913633 22576.683906
-9882.507060 -9685.600033 16629.175957
-10180.880982 -10687.517282 17332.719284
-9882.507060 -9685.600033 16629.175957
-9387.071553 -8616.623653 16055.635084
21015.301041 -18216.750789 9498.635858
21438.674945 -19160.402439 10018.913605
21015.301041 -18216.750789 9498.635858
20639.766586 -17221.385110 8878.804634
-10108.400067 7756.244781 -28106.594415
-10879.065838 7741.725353 -27350.448072
-10108.400067 7756.244781 -28106.594415
-9428.887676 7793.078898 -28749.272689
-17124.290347 -22111.358626 -11811.791587
-16395.981760 -22111.358626 -12540.087444
-17124.290347 -22111.358626 -11811.791587
-18243.020639 -22111.381941 -10698.625733
-28330.238005 24034.800917 -13283.465516
-28712.302900 24113.626562 -12822.567648
-28330.238005 24034.800917 -13283.465516
-27572.504660 23965.901982 -14110.101493
14084.385682 -20637.655158 -15864.344705
14857.243318 -21173.116311 -17172.663494
14084.385682 -20637.655158 -15864.344705
13214.810745 -20242.753195 -14599.867805
-10240.880764 6504.726155 -23220.696946
-10353.296440 6838.380300 -22774.627125
-10240.880764 6504.726155 -23220.696946
-10159.560147 6090.183516 -23716.560203
-13402.567946 9456.728639 -19988.832710
-13520.883328 10141.602907 -20792.021562
-13402.567946 9456.728639 -19988.832710
-13346.325151 8419.358312 -18895.219587
23672.379481 3707.212846 6409.263672
23725.223593 3637.791421 6531.529210
23672.379481 3707.212846 6409.263672
23701.607366 3760.056958 6432.879900
23672.379481 3707.212846 6409.263672
23223.265985 3258.099350 6409.263672
5834.819295 15843.229142 15070.897218
5302.588687 14795.399888 16650.957079
5834.819295 15843.229142 15070.897218
5514.532195 17321.849060 13912.564400
-4419.645660 -17844.061063 -23794.689691
-3622.218832 -18641.487890 -23794.689691
-4419.645660 -17844.061063 -23794.689691
-5172.157544 -17091.549179 -23794.689691
-359.557357 -25849.876635 -24923.454028
-1338.105745 -25624.557326 -23719.586330
-359.557357 -25849.876635 -24923.454028
652.766782 -26208.131832 -26294.033364
23247.233931 11383.184176 -11293.617645
22473.338512 10512.656787 -11390.249615
23247.233931 11383.184176 -11293.617645
23906.746571 11945.837050 -11390.021820
-27854.964468 29087.584772 12464.926370
-28762.771707 29087.584772 13361.595258
-27854.964468 29087.584772 12464.926370
-27148.564749 29087.584772 11779.828360
-13362.117471 27735.551874 -17159.465405
-14373.979354 27633.421451 -16249.733945
-13362.117471 27735.551874 -17159.465405
-12412.807661 27627.353352 -18216.973737
-6519.688831 -12354.747838 -23658.438481
-6519.688831 -11850.287948 -24167.416746
-6519.688831 -12354.747838 -23658.438481
-6519.688831 -13488.974969 -22519.320600
4503.320825 19057.574927 13188.049903
5056.575481 18214.613645 13477.756530
4503.320825 19057.574927 13188.049903
3166.440079 20479.923236 13102.582340
-11575.130429 -818.896791 21203.010675
-12014.684267 563.907950 20259.759772
-11575.130429 -818.896791 21203.010675
-11438.353032 -1647.239056 21894.575544
-15451.483943 -17824.518445 -16030.793092
-15744.723306 -18117.758046 -16030.792659
-15451.483943 -17824.518445 -16030.793092
-14566.783459 -16939.817475 -16030.793174
18153.050769 1459.435042 -24764.283232
17559.272147 1597.666727 -25219.830170
18153.050769 1459.435042 -24764.283232
18776.022611 1453.815410 -24146.931023
19302.774309 -2070.254083 -609.655430
19155.306117 -2144.261819 -536.194974
19302.774309 -2070.254083 -609.655430
19302.131280 -2755.020872 -1293.779190
19302.774309 -2070.254083 -609.655430
19201.374349 -1467.363276 -110.024749
23960.987996 20651.158309 -16173.227774
24540.998423 20304.134267 -16406.214157
23960.987996 20651.158309 -16173.227774
23178.431902 19575.277359 -16466.552630
[...]
CELL_DATA 21126
VECTORS Burgers FLOAT
0.000000 0.000000 0.000000
0.707107 0.000000 -0.707107
-0.707107 -0.000000 0.707107
0.000000 0.707107 -0.707107
0.707107 0.000000 0.707107
-0.707107 -0.707107 0.000000
0.707107 -0.707107 0.000000
-0.707107 0.000000 -0.707107
-0.000000 0.707107 0.707107
-0.707107 -0.000000 0.707107
0.707107 0.000000 -0.707107
-0.707107 -0.707107 -0.000000
0.707107 0.707107 0.000000
0.707107 -0.707107 0.000000
-0.707107 0.707107 -0.000000
0.000000 -0.707107 -0.707107
-0.000000 0.707107 0.707107
-0.707107 0.707107 -0.000000
0.707107 -0.707107 0.000000
-0.707107 0.000000 -0.707107
0.707107 0.000000 0.707107
-0.000000 0.707107 -0.707107
0.000000 -0.707107 0.707107
-0.000000 0.707107 0.707107
0.000000 -0.707107 -0.707107
0.707107 0.707107 0.000000
-0.707107 -0.707107 -0.000000
-0.707107 -0.000000 0.707107
0.707107 0.000000 -0.707107
0.000000 0.707107 0.707107
-0.000000 -0.707107 -0.707107
-0.000000 -0.707107 -0.707107
0.000000 0.707107 0.707107
0.707107 0.000000 -0.707107
-0.707107 -0.707107 0.000000
-0.000000 0.707107 0.707107
0.707107 -0.707107 -0.000000
-0.707107 0.707107 -0.000000
0.707107 0.707107 0.000000
-0.707107 -0.707107 -0.000000
-0.707107 0.000000 -0.707107
0.707107 -0.000000 0.707107
0.707107 0.000000 -0.707107
-0.707107 -0.000000 0.707107
-0.707107 0.000000 -0.707107
0.707107 -0.000000 0.707107
0.000000 0.707107 0.707107
-0.000000 -0.707107 -0.707107
0.000000 0.707107 0.707107
-0.707107 -0.000000 -0.707107
0.707107 -0.707107 0.000000
0.707107 0.000000 0.707107
0.000000 0.000000 -1.414214
-0.707107 -0.000000 0.707107
-0.707107 -0.707107 0.000000
0.707107 0.707107 -0.000000
0.707107 0.707107 0.000000
-0.707107 -0.707107 -0.000000
-0.707107 -0.707107 -0.000000
0.707107 -0.000000 -0.707107
0.000000 0.707107 0.707107
-0.707107 -0.000000 0.707107
0.707107 -0.000000 -0.707107
0.707107 -0.707107 0.000000
-0.707107 0.707107 -0.000000
0.707107 0.000000 0.707107
-0.707107 0.000000 0.707107
0.000000 0.707107 -0.707107
0.000000 -0.707107 -0.707107
0.707107 0.000000 0.707107
-0.707107 -0.000000 -0.707107
0.000000 0.707107 0.707107
-0.000000 -0.707107 -0.707107
0.000000 0.707107 0.707107
-0.000000 -0.707107 -0.707107
-0.000000 0.707107 -0.707107
0.000000 -0.707107 0.707107
-0.000000 0.707107 -0.707107
0.000000 -0.707107 0.707107
0.707107 0.707107 0.000000
-0.707107 -0.707107 -0.000000
-0.707107 0.000000 -0.707107
0.707107 -0.000000 0.707107
0.707107 0.707107 0.000000
-0.707107 -0.707107 -0.000000
-0.707107 -0.000000 0.707107
0.707107 0.000000 -0.707107
0.000000 -0.707107 -0.707107
-0.000000 0.707107 0.707107
0.000000 0.707107 -0.707107
-0.000000 -0.707107 0.707107
-0.000000 -0.707107 0.707107
0.707107 -0.000000 -0.707107
-0.707107 0.707107 -0.000000
-0.707107 0.000000 0.707107
0.707107 -0.000000 -0.707107
0.707107 0.707107 0.000000
-0.707107 -0.707107 -0.000000
0.707107 -0.000000 -0.707107
-0.707107 0.000000 0.707107
0.707107 -0.000000 -0.707107
-0.707107 0.000000 0.707107
0.707107 0.000000 0.707107
-0.707107 -0.000000 -0.707107
0.707107 -0.000000 -0.707107
-0.707107 0.000000 0.707107
-0.000000 0.707107 0.707107
-0.000000 -0.707107 -0.707107
-0.707107 0.000000 0.707107
0.707107 -0.000000 -0.707107
0.000000 0.707107 -0.707107
-0.000000 -0.707107 0.707107
-0.707107 0.707107 -0.000000
0.707107 -0.707107 0.000000
0.000000 -0.707107 -0.707107
-0.000000 0.707107 0.707107
0.707107 0.707107 -0.000000
-0.707107 -0.000000 0.707107
0.000000 -0.707107 -0.707107
-0.707107 0.707107 -0.000000
0.707107 -0.000000 -0.707107
0.000000 -0.707107 0.707107
-0.707107 -0.000000 -0.707107
0.000000 0.707107 0.707107
0.707107 -0.707107 0.000000
0.707107 0.000000 0.707107
-0.707107 -0.000000 -0.707107
0.707107 -0.000000 0.707107
-0.707107 0.000000 -0.707107
0.000000 0.707107 -0.707107
-0.000000 -0.707107 0.707107
0.707107 0.707107 0.000000
-0.707107 0.000000 -0.707107
-0.000000 -0.707107 0.707107
0.707107 0.707107 -0.000000
-0.707107 -0.707107 0.000000
-0.707107 -0.707107 0.000000
0.707107 0.707107 -0.000000
0.000000 0.707107 0.707107
-0.000000 -0.707107 -0.707107
-0.707107 -0.000000 0.707107
0.000000 0.707107 -0.707107
-0.000000 -0.707107 0.707107
0.707107 0.000000 -0.707107
-0.707107 -0.000000 0.707107
-0.707107 -0.000000 -0.707107
0.707107 -0.000000 0.707107
-0.707107 0.000000 -0.707107
0.707107 -0.000000 0.707107
-0.707107 -0.000000 0.707107
0.707107 0.000000 -0.707107
0.707107 -0.707107 0.000000
-0.707107 0.707107 -0.000000
0.000000 -0.707107 0.707107
-0.000000 0.707107 -0.707107
0.707107 -0.707107 0.000000
-0.707107 0.707107 -0.000000
0.000000 0.707107 -0.707107
-0.000000 -0.707107 0.707107
0.000000 0.707107 0.707107
-0.707107 -0.707107 -0.000000
0.707107 0.000000 -0.707107
-0.707107 0.707107 0.000000
0.707107 -0.707107 -0.000000
-0.707107 0.000000 -0.707107
0.707107 -0.000000 0.707107
-0.707107 -0.707107 0.000000
0.707107 0.707107 0.000000
-0.707107 0.707107 -0.000000
0.707107 -0.707107 0.000000
0.000000 0.707107 0.707107
-0.000000 -0.707107 -0.707107
-0.707107 0.707107 0.000000
0.707107 -0.707107 -0.000000
-0.707107 -0.000000 -0.707107
0.707107 -0.000000 0.707107
-0.707107 -0.707107 -0.000000
0.707107 0.707107 -0.000000
-0.707107 0.000000 -0.707107
0.707107 -0.000000 0.707107
0.707107 -0.000000 0.707107
-0.707107 0.000000 -0.707107
-0.707107 -0.707107 -0.000000
0.707107 0.707107 0.000000
0.000000 0.707107 0.707107
-0.707107 -0.707107 0.000000
0.707107 0.000000 -0.707107
0.707107 0.000000 0.707107
-0.707107 -0.000000 -0.707107
0.707107 -0.707107 0.000000
-0.000000 0.707107 0.707107
-0.707107 0.000000 -0.707107
-0.707107 0.000000 -0.707107
0.707107 -0.000000 0.707107
0.000000 -0.707107 -0.707107
-0.000000 0.707107 0.707107
-0.707107 0.000000 0.707107
0.707107 0.000000 -0.707107
-0.707107 -0.707107 -0.000000
0.707107 0.707107 0.000000
0.707107 0.000000 -0.707107
0.000000 -0.707107 0.707107
-0.707107 0.707107 -0.000000
0.707107 0.000000 -0.707107
-0.707107 -0.000000 0.707107
-0.707107 0.000000 -0.707107
0.707107 -0.000000 0.707107
-0.707107 -0.707107 0.000000
0.707107 0.707107 -0.000000
0.707107 -0.000000 -0.707107
-0.707107 0.000000 0.707107
-0.000000 0.707107 -0.707107
0.000000 -0.707107 0.707107
-0.000000 -0.707107 0.707107
0.000000 0.707107 -0.707107
0.000000 1.414214 -0.000000
-0.000000 -1.414214 0.000000
-0.000000 0.707107 -0.707107
-0.000000 -0.707107 0.707107
0.707107 -0.000000 0.707107
-0.707107 0.000000 -0.707107
-0.000000 -0.707107 0.707107
-0.000000 0.707107 -0.707107
-0.000000 0.707107 -0.707107
0.707107 0.000000 -0.707107
-0.707107 0.000000 0.707107
-0.707107 0.707107 0.000000
0.707107 -0.707107 -0.000000
-0.707107 -0.000000 -0.707107
-0.707107 -0.000000 -0.707107
0.707107 0.000000 0.707107
-0.000000 -0.707107 0.707107
0.707107 0.707107 -1.414214
-0.707107 0.000000 0.707107
-0.707107 -0.707107 -0.000000
0.707107 0.707107 -0.000000
0.000000 -0.707107 -0.707107
-0.000000 0.707107 0.707107
0.707107 0.707107 -0.000000
-0.707107 -0.707107 -0.000000
0.707107 -0.000000 -0.707107
-0.707107 0.000000 0.707107
-0.000000 -0.707107 0.707107
-0.000000 0.707107 -0.707107
0.707107 -0.707107 0.000000
0.000000 -0.707107 0.707107
-0.000000 0.707107 -0.707107
0.707107 -0.000000 -0.707107
-0.707107 0.000000 0.707107
0.000000 0.707107 0.707107
-0.000000 -0.707107 -0.707107
-0.707107 0.000000 -0.707107
0.707107 -0.000000 0.707107
0.000000 0.707107 -0.707107
0.707107 0.000000 0.707107
-0.707107 -0.707107 0.000000
-0.707107 -0.000000 0.707107
0.707107 0.000000 -0.707107
0.707107 -0.707107 -0.000000
-0.707107 0.707107 0.000000
-0.707107 0.000000 -0.707107
0.707107 -0.000000 0.707107
0.000000 0.707107 -0.707107
-0.000000 -0.707107 0.707107
-0.707107 0.000000 -0.707107
0.707107 -0.000000 0.707107
0.707107 0.000000 0.707107
-0.707107 -0.000000 -0.707107
0.707107 -0.707107 0.000000
-0.707107 0.707107 -0.000000
-0.707107 -0.000000 0.707107
0.707107 -0.000000 -0.707107
0.707107 -0.000000 -0.707107
-0.707107 -0.707107 0.000000
-0.000000 0.707107 0.707107
-0.707107 -0.000000 0.707107
0.707107 0.000000 -0.707107
0.707107 -0.000000 0.707107
-0.707107 0.000000 -0.707107
-0.707107 0.000000 0.707107
0.707107 -0.000000 -0.707107
0.000000 -0.707107 -0.707107
-0.000000 0.707107 0.707107
-0.000000 0.707107 0.707107
0.000000 -0.707107 -0.707107
-0.707107 0.000000 0.707107
0.707107 -0.000000 -0.707107
-0.707107 0.707107 -0.000000
0.707107 -0.707107 0.000000
-0.000000 -1.414214 0.000000
-0.000000 1.414214 -0.000000
0.707107 0.000000 -0.707107
-0.707107 -0.000000 0.707107
-0.000000 0.707107 0.707107
0.000000 -0.707107 -0.707107
-0.707107 -0.000000 0.707107
0.000000 -0.707107 -0.707107
0.707107 0.707107 -0.000000
0.000000 -0.707107 0.707107
-0.000000 0.707107 -0.707107
-0.707107 -0.000000 -0.707107
0.707107 -0.000000 0.707107
0.707107 0.000000 -0.707107
-0.707107 0.000000 0.707107
0.707107 -0.000000 -0.707107
-0.707107 0.000000 0.707107
-0.707107 0.000000 0.707107
0.707107 -0.000000 -0.707107
-0.707107 -0.707107 0.000000
0.707107 0.707107 -0.000000
-0.707107 -0.707107 0.000000
0.707107 0.707107 -0.000000
-0.000000 0.707107 -0.707107
-0.707107 -0.707107 -0.000000
0.707107 0.000000 0.707107
-0.000000 0.707107 0.707107
0.707107 -0.707107 -0.000000
-0.707107 -0.000000 -0.707107
0.000000 -0.707107 -0.707107
-0.000000 0.707107 0.707107
0.000000 0.707107 -0.707107
-0.000000 -0.707107 0.707107
-0.707107 0.000000 -0.707107
0.000000 -0.707107 0.707107
0.707107 0.707107 -0.000000
-0.707107 -0.000000 0.707107
0.707107 0.000000 -0.707107
0.707107 0.000000 0.707107
-0.707107 -0.000000 -0.707107
0.707107 0.707107 0.000000
-0.707107 -0.707107 -0.000000
0.000000 0.707107 0.707107
0.000000 -0.707107 -0.707107
0.000000 0.707107 0.707107
0.707107 -0.707107 -0.000000
-0.707107 0.000000 -0.707107
0.707107 -0.000000 0.707107
-0.707107 0.000000 -0.707107
-0.000000 -0.707107 0.707107
0.707107 -0.000000 -0.707107
-0.707107 0.707107 0.000000
0.707107 0.000000 -0.707107
-0.707107 -0.000000 0.707107
-0.707107 0.707107 0.000000
0.707107 -0.707107 -0.000000
-0.707107 0.000000 -0.707107
0.707107 0.000000 0.707107
0.000000 -0.707107 -0.707107
-0.000000 0.707107 0.707107
-0.707107 -0.707107 0.000000
0.707107 0.707107 -0.000000
0.707107 0.000000 0.707107
-0.707107 -0.000000 -0.707107
-0.707107 0.000000 -0.707107
0.707107 -0.000000 0.707107
0.707107 -0.000000 0.707107
-0.707107 0.707107 0.000000
0.000000 -0.707107 -0.707107
-0.000000 0.707107 0.707107
0.000000 -0.707107 -0.707107
0.707107 -0.707107 -0.000000
-0.707107 0.707107 0.000000
-0.707107 0.707107 0.000000
0.707107 -0.707107 -0.000000
0.707107 -0.707107 0.000000
-0.707107 0.707107 -0.000000
0.000000 -1.414214 0.000000
0.000000 1.414214 -0.000000
0.000000 -0.707107 -0.707107
0.707107 0.707107 0.000000
-0.707107 0.000000 0.707107
0.707107 0.707107 0.000000
-0.707107 -0.707107 -0.000000
0.707107 0.707107 0.000000
-0.707107 -0.707107 -0.000000
-0.707107 -0.707107 -0.000000
0.707107 0.707107 0.000000
-0.000000 0.707107 0.707107
0.000000 -0.707107 -0.707107
-0.707107 0.000000 0.707107
0.707107 -0.000000 -0.707107
0.707107 0.000000 0.707107
-0.707107 -0.000000 -0.707107
-0.000000 -1.414214 -0.000000
0.000000 1.414214 0.000000
0.707107 -0.000000 0.707107
-0.707107 0.000000 -0.707107
-0.707107 0.000000 -0.707107
0.707107 0.000000 -0.707107
0.000000 -0.000000 1.414214
-0.707107 0.707107 0.000000
0.707107 -0.707107 -0.000000
0.707107 0.707107 -0.000000
-0.707107 -0.707107 0.000000
-0.707107 0.000000 0.707107
0.707107 -0.000000 -0.707107
0.707107 0.707107 0.000000
-0.707107 -0.707107 -0.000000
0.707107 -0.000000 -0.707107
-0.707107 -0.000000 0.707107
0.000000 0.707107 0.707107
-0.000000 -0.707107 -0.707107
-0.000000 -0.000000 -1.414214
0.000000 0.000000 1.414214
0.707107 0.000000 -0.707107
-0.707107 0.707107 0.000000
0.707107 -0.707107 -0.000000
-0.707107 -0.000000 0.707107
0.707107 0.707107 0.000000
-0.707107 -0.707107 -0.000000
-0.707107 -0.707107 0.000000
0.707107 0.707107 -0.000000
0.707107 0.000000 0.707107
-0.707107 0.000000 -0.707107
-0.707107 -0.707107 0.000000
0.707107 0.707107 -0.000000
-0.000000 0.707107 -0.707107
0.000000 -0.707107 0.707107
-0.707107 0.707107 0.000000
0.707107 -0.707107 -0.000000
-0.707107 0.000000 -0.707107
0.707107 -0.000000 0.707107
0.707107 0.707107 0.000000
-0.707107 -0.707107 0.000000
-0.000000 0.707107 -0.707107
0.000000 -0.707107 0.707107
0.707107 0.000000 -0.707107
-0.707107 -0.000000 0.707107
0.707107 -0.000000 -0.707107
-0.707107 0.000000 -0.707107
0.707107 -0.000000 0.707107
0.000000 0.707107 0.707107
0.000000 -0.707107 -0.707107
0.000000 -0.707107 -0.707107
-0.000000 -0.707107 -0.707107
0.000000 0.707107 0.707107
-0.707107 0.707107 0.000000
0.707107 -0.707107 -0.000000
-0.707107 0.707107 0.000000
0.707107 -0.707107 0.000000
0.000000 0.707107 0.707107
0.000000 0.707107 0.707107
-0.000000 -0.707107 -0.707107
0.707107 -0.000000 0.707107
-0.707107 0.000000 -0.707107
-0.000000 0.707107 0.707107
-0.707107 -0.000000 -0.707107
0.707107 -0.707107 -0.000000
0.707107 0.707107 0.000000
-0.707107 -0.707107 -0.000000
-0.000000 -0.707107 -0.707107
0.000000 0.707107 0.707107
-0.000000 -0.707107 0.707107
0.000000 0.707107 -0.707107
-1.414214 -0.000000 0.000000
1.414214 0.000000 -0.000000
0.707107 0.000000 0.707107
-0.707107 -0.000000 -0.707107
-0.000000 -0.707107 -0.707107
0.707107 0.707107 0.000000
-0.707107 -0.000000 0.707107
0.000000 0.707107 -0.707107
0.000000 -0.707107 0.707107
0.000000 0.707107 0.707107
-0.000000 -0.707107 -0.707107
-0.707107 0.707107 0.000000
0.707107 -0.000000 -0.707107
-0.000000 -0.707107 0.707107
0.707107 0.000000 -0.707107
-0.000000 -0.707107 0.707107
-0.707107 0.707107 -0.000000
-0.707107 -0.000000 -0.707107
0.707107 0.000000 0.707107
0.000000 -0.707107 -0.707107
0.000000 -0.707107 -0.707107
-0.000000 0.707107 0.707107
0.707107 0.000000 0.707107
-0.707107 -0.000000 -0.707107
0.707107 0.000000 0.707107
-0.707107 -0.707107 0.000000
0.000000 0.707107 -0.707107
-0.707107 0.000000 -0.707107
0.707107 -0.000000 0.707107
-0.707107 -0.707107 0.000000
0.707107 0.707107 -0.000000
-0.707107 0.000000 0.707107
0.707107 -0.000000 -0.707107
-0.000000 -0.707107 -0.707107
0.000000 0.707107 0.707107
-0.707107 -0.000000 -0.707107
0.000000 -0.707107 0.707107
0.707107 0.707107 0.000000
-0.707107 -0.707107 -0.000000
0.707107 0.707107 -0.000000
1.414214 -0.000000 -0.000000
-0.707107 -0.000000 0.707107
-0.707107 -0.000000 -0.707107
0.000000 0.707107 -0.707107
0.707107 -0.000000 0.707107
-0.707107 -0.707107 -0.000000
0.000000 -0.707107 -0.707107
-0.000000 0.707107 0.707107
-0.000000 -0.000000 -1.414214
0.707107 0.707107 0.000000
-0.707107 -0.707107 -0.000000
-0.000000 -0.707107 0.707107
-0.707107 0.707107 -0.000000
0.707107 0.000000 -0.707107
-0.707107 0.707107 -0.000000
-0.000000 -0.707107 0.707107
0.707107 0.000000 -0.707107
0.000000 -0.707107 -0.707107
-0.000000 0.707107 0.707107
0.707107 0.000000 -0.707107
-0.707107 -0.707107 -0.000000
-0.000000 0.707107 0.707107
-0.707107 0.000000 -0.707107
0.000000 0.707107 0.707107
0.707107 -0.707107 -0.000000
0.707107 0.707107 -0.000000
-0.707107 -0.707107 0.000000
0.707107 -0.000000 -0.707107
-0.707107 -0.000000 0.707107
-0.000000 0.707107 0.707107
-0.707107 0.000000 -0.707107
0.707107 -0.707107 -0.000000
0.000000 -0.707107 -0.707107
-0.000000 0.707107 0.707107
0.000000 -0.707107 -0.707107
0.000000 0.707107 0.707107
0.000000 -0.707107 -0.707107
-0.000000 0.707107 0.707107
-0.000000 0.707107 0.707107
-0.000000 -0.707107 -0.707107
-0.000000 -0.707107 -0.707107
0.000000 0.707107 0.707107
0.707107 0.000000 -0.707107
-0.707107 -0.000000 0.707107
0.000000 0.707107 -0.707107
-0.000000 -0.707107 0.707107
0.000000 -0.707107 -0.707107
0.000000 -0.707107 0.707107
-0.000000 0.707107 -0.707107
-0.000000 0.707107 0.707107
-0.000000 0.707107 -0.707107
0.707107 0.707107 0.000000
-0.707107 -0.707107 -0.000000
0.707107 0.707107 0.000000
-0.707107 -0.707107 -0.000000
-0.707107 0.000000 -0.707107
0.707107 -0.000000 0.707107
-0.707107 0.000000 -0.707107
0.707107 -0.000000 0.707107
-0.000000 0.707107 -0.707107
0.000000 -0.707107 0.707107
0.707107 -0.707107 0.000000
-0.707107 0.707107 -0.000000
-0.000000 0.707107 0.707107
-0.707107 0.000000 -0.707107
0.707107 -0.707107 0.000000
-0.707107 -0.707107 -0.000000
-0.000000 -0.707107 -0.707107
0.000000 0.707107 0.707107
0.707107 0.000000 -0.707107
-0.707107 -0.000000 0.707107
-0.707107 0.000000 -0.707107
0.707107 0.000000 0.707107
0.707107 -0.000000 0.707107
0.000000 0.707107 -0.707107
-0.000000 -0.707107 0.707107
0.707107 0.000000 -0.707107
-0.707107 -0.000000 0.707107
0.000000 -0.707107 -0.707107
-0.000000 0.707107 0.707107
0.707107 -0.707107 0.000000
-0.707107 0.000000 -0.707107
-0.000000 0.707107 0.707107
-0.707107 -0.000000 -0.707107
0.707107 -0.707107 0.000000
0.000000 0.707107 0.707107
-0.707107 0.000000 0.707107
0.707107 0.707107 -0.000000
0.000000 -0.707107 -0.707107
-0.707107 -0.000000 0.707107
0.707107 0.000000 -0.707107
-0.707107 -0.707107 -0.000000
0.707107 0.707107 0.000000
-0.000000 0.707107 -0.707107
-0.000000 -0.000000 1.414214
0.000000 -0.707107 -0.707107
0.707107 -0.000000 -0.707107
-0.707107 0.000000 0.707107
-0.707107 -0.000000 -0.707107
0.707107 -0.000000 0.707107
-0.000000 0.707107 -0.707107
0.000000 -0.707107 0.707107
-0.000000 0.707107 -0.707107
0.000000 -0.707107 0.707107
-0.707107 -0.000000 0.707107
0.707107 0.000000 -0.707107
0.707107 0.000000 0.707107
-0.707107 -0.000000 -0.707107
0.000000 -0.707107 -0.707107
-0.000000 0.707107 0.707107
0.000000 0.707107 -0.707107
-0.000000 -0.707107 0.707107
0.707107 0.000000 0.707107
-0.707107 -0.000000 -0.707107
0.000000 -0.707107 -0.707107
-0.000000 0.707107 0.707107
-0.707107 -0.000000 -0.707107
0.707107 -0.707107 0.000000
-0.000000 0.707107 0.707107
0.000000 -0.707107 -0.707107
-0.000000 0.707107 0.707107
0.707107 0.000000 0.707107
-0.707107 -0.000000 -0.707107
0.000000 -0.707107 -0.707107
-0.000000 0.707107 0.707107
0.707107 0.000000 -0.707107
-0.707107 -0.707107 0.000000
0.707107 0.707107 -0.000000
0.707107 0.000000 0.707107
-0.707107 -0.000000 -0.707107
0.000000 0.707107 0.707107
-0.000000 -0.707107 -0.707107
0.707107 0.707107 0.000000
-0.000000 -0.707107 -0.707107
-0.707107 0.000000 0.707107
-0.707107 -0.707107 0.000000
0.707107 0.707107 -0.000000
-0.000000 -0.707107 -0.707107
-0.000000 0.707107 0.707107
0.000000 0.707107 0.707107
-0.000000 -0.707107 -0.707107
0.707107 0.000000 -0.707107
0.707107 0.000000 -0.707107
-0.707107 -0.000000 0.707107
-0.707107 0.000000 0.707107
0.707107 -0.000000 -0.707107
-1.414214 -0.000000 -0.000000
1.414214 0.000000 0.000000
-0.000000 -0.707107 0.707107
0.000000 -0.707107 0.707107
0.000000 0.707107 0.707107
-0.000000 -0.707107 -0.707107
-0.000000 0.707107 -0.707107
-0.707107 0.000000 0.707107
0.707107 0.000000 -0.707107
-0.707107 0.707107 -0.000000
0.707107 -0.707107 0.000000
0.707107 -0.707107 0.000000
0.707107 -0.000000 0.707107
-0.707107 0.000000 -0.707107
-0.707107 -0.707107 0.000000
0.707107 0.707107 -0.000000
-0.707107 -0.000000 -0.707107
0.707107 0.000000 0.707107
-0.000000 -0.707107 -0.707107
0.000000 0.707107 0.707107
0.000000 -0.707107 -0.707107
0.000000 -0.707107 0.707107
-0.000000 0.707107 -0.707107
0.000000 0.707107 0.707107
-0.707107 -0.707107 0.000000
0.707107 0.707107 -0.000000
0.000000 0.707107 -0.707107
-0.000000 -0.707107 0.707107
0.000000 -0.707107 0.707107
-0.000000 0.707107 -0.707107
0.000000 0.707107 -0.707107
-0.000000 -0.707107 0.707107
0.000000 -0.707107 0.707107
-0.000000 0.707107 -0.707107
0.707107 0.707107 0.000000
0.707107 0.707107 0.000000
0.000000 -0.707107 -0.707107
0.000000 -0.707107 0.707107
-0.000000 0.707107 -0.707107
-0.707107 0.000000 -0.707107
0.000000 0.707107 0.707107
0.707107 -0.707107 -0.000000
0.707107 -0.000000 -0.707107
-0.707107 0.000000 0.707107
0.707107 0.707107 0.000000
-0.707107 -0.707107 -0.000000
0.707107 -0.707107 0.000000
-0.707107 0.707107 -0.000000
-0.707107 0.707107 -0.000000
0.707107 -0.707107 0.000000
-0.707107 0.000000 0.707107
0.707107 -0.000000 -0.707107
-0.707107 -0.707107 0.000000
0.707107 -0.000000 -0.707107
0.000000 0.707107 0.707107
-0.707107 -0.707107 0.000000
0.707107 0.707107 -0.000000
0.000000 -0.707107 -0.707107
-0.000000 0.707107 0.707107
0.000000 -0.707107 -0.707107