# vtk DataFile Version 3.0
Configuration exported from OpenDiS
ASCII
DATASET UNSTRUCTURED_GRID
POINTS 48896 FLOAT
-29412.000000 -29412.000000 -29412.000000
29412.000000 -29412.000000 -29412.000000
-29412.000000 29412.000000 -29412.000000
-29412.000000 -29412.000000 29412.000000
29412.000000 29412.000000 -29412.000000
29412.000000 -29412.000000 29412.000000
-29412.000000 29412.000000 29412.000000
29412.000000 29412.000000 29412.000000
20997.127466 2835.415670 4605.808833
20996.610711 2851.252983 4589.454765
20997.127466 2835.415670 4605.808833
20455.183163 2983.928317 5296.265783
-28149.029584 23494.829467 -20273.144409
-28679.585521 23619.142202 -19866.901207
-28149.029584 23494.829467 -20273.144409
-27129.498508 23380.026847 -21177.872866
-6989.768575 -24710.125821 6614.980468
-7646.345947 -24582.794338 5831.071612
-6989.768575 -24710.125821 6614.980468
-6100.971166 -24675.305484 7468.957539
5762.047643 -4700.418458 27288.548388
5927.096536 -4859.848293 27613.027135
5762.047643 -4700.418458 27288.548388
5196.010687 -4096.402413 26118.495257
20920.588597 25004.052367 -13295.620924
21485.103383 25214.805758 -12941.859529
20920.588597 25004.052367 -13295.620924
21249.513000 24696.173352 -13274.575535
20920.588597 25004.052367 -13295.620924
20906.446461 25004.052367 -13309.763060
-21182.132220 -28620.403487 24873.079931
-20531.804860 -29152.809216 23690.346842
-21182.132220 -28620.403487 24873.079931
-21314.448193 -27927.093813 24312.086230
-21182.132220 -28620.403487 24873.079931
-21121.826212 -28913.685707 25106.056143
-21182.132220 -28620.403487 24873.079931
-21630.849102 -28564.958901 25377.241400
-28368.232145 14295.396292 -29023.769651
-27660.576049 13587.740196 -29023.769651
-28368.232145 14295.396292 -29023.769651
-29274.829059 14720.342206 -28542.118651
-28368.232145 14295.396292 -29023.769651
-27329.413236 15170.804453 -29187.180398
10906.451546 -11390.438347 9081.339242
11282.101783 -11481.336827 9547.887959
10906.451546 -11390.438347 9081.339242
10590.099627 -11368.666355 8743.215331
-2345.781043 -12646.285404 8413.867242
-1972.084882 -12646.285404 8016.658810
-2345.781043 -12646.285404 8413.867242
-3025.721974 -12646.285404 9107.827306
-23942.711355 -22029.450803 23844.406497
-23417.209217 -20991.219352 23331.677136
-23942.711355 -22029.450803 23844.406497
-24588.323343 -23172.052366 24341.395978
-23942.711355 -22029.450803 23844.406497
-24046.017217 -22002.972459 23974.190704
-23608.614487 642.991201 -17317.683851
-23608.615288 1387.735927 -18062.424587
-23608.614487 642.991201 -17317.683851
-23608.614289 -145.111359 -16535.649591
14523.171041 28473.694661 21522.541262
13436.561772 28481.976523 20427.649815
14523.171041 28473.694661 21522.541262
14523.171036 27480.667944 20529.514539
14523.171041 28473.694661 21522.541262
16093.624372 29391.236698 20869.629968
4857.091696 -14259.068813 26050.077898
4796.602888 -15013.480019 25235.177885
4857.091696 -14259.068813 26050.077898
3885.376335 -15230.785989 26050.077898
13880.123657 -12367.055255 -25406.166240
15203.253390 -11582.667947 -24867.822382
13880.123657 -12367.055255 -25406.166240
12977.924656 -12259.719089 -26415.302840
6066.159863 -24338.072578 -26153.362504
6848.258515 -23634.000583 -26231.389532
6066.159863 -24338.072578 -26153.362504
5437.203951 -24664.996692 -25851.330706
-17380.198376 16805.724843 -9620.267465
-18777.458670 16805.724843 -8354.520780
-17380.198376 16805.724843 -9620.267465
-16678.021628 16805.724781 -10415.603616
-10799.051294 -21938.685130 -24064.197114
-10285.630911 -21231.453377 -23870.385744
-10799.051294 -21938.685130 -24064.197114
-11388.232295 -22538.427944 -24074.758926
9343.386964 -22695.899530 1094.718390
9191.809331 -22966.886375 672.153912
9343.386964 -22695.899530 1094.718390
10175.512013 -22535.490406 2087.252563
-11299.604824 25197.906038 -9473.643365
-12107.491963 25621.299550 -9858.136992
-11299.604824 25197.906038 -9473.643365
-11299.604824 25340.690769 -9330.858633
-11299.604824 25197.906038 -9473.643365
-11253.337705 24870.548063 -9847.268458
23093.011817 -594.960902 -2454.681046
22868.920027 -122.000979 -2205.812913
23093.011817 -594.960902 -2454.681046
23639.807498 -1749.007835 -3061.932297
-11664.741479 -2021.888641 22495.613575
-11299.647386 -2021.888641 22130.519482
-11664.741479 -2021.888641 22495.613575
-10730.001512 -2625.787002 24034.251904
-11664.741479 -2021.888641 22495.613575
-12345.856105 -1892.729739 23305.887104
27080.016317 -22388.780085 14886.427211
26386.632745 -23074.519069 14894.071799
27080.016317 -22388.780085 14886.427211
26588.823888 -21883.825005 14900.189862
-22232.772994 -1788.625244 -14826.454116
-21363.547578 -1788.625244 -15695.679532
-22232.772994 -1788.625244 -14826.454116
-22434.054904 -2087.466817 -14326.330633
-22232.772994 -1788.625244 -14826.454116
-22982.526979 -1438.183606 -15227.994233
-21927.511916 19860.276232 -7105.304181
-22617.518485 20266.818790 -8201.853308
-21927.511916 19860.276232 -7105.304181
-21391.805947 19103.097163 -5812.419143
17722.204372 -14531.648876 -12932.075473
16858.067423 -14984.286753 -13343.574544
17722.204372 -14531.648876 -12932.075473
18628.412907 -13954.758589 -12602.757224
19424.489951 -21253.692864 11321.093363
19073.974195 -21595.259718 11330.268978
19424.489951 -21253.692864 11321.093363
20479.938012 -20452.579312 11066.758854
7989.759022 13218.862914 -27220.465801
8322.922686 12872.239542 -27900.252837
7989.759022 13218.862914 -27220.465801
7245.103476 14059.569231 -25635.103938
28816.595044 21698.589594 25562.452679
29138.471124 20982.613146 25168.352310
28816.595044 21698.589594 25562.452679
29072.149996 21965.626634 25039.860687
28816.595044 21698.589594 25562.452679
29123.806357 21380.294810 26188.225976
16051.977526 -13446.975621 26774.107335
16297.301468 -12336.106415 25417.914187
16051.977526 -13446.975621 26774.107335
16035.819802 -14740.115108 28083.404546
25794.625519 -3793.018689 16157.063481
25505.392334 -4172.247275 15488.601234
25794.625519 -3793.018689 16157.063481
26100.095589 -2919.104873 17336.448112
-15325.461695 -24627.701663 3919.902844
-14862.947406 -24052.433870 4957.684927
-15325.461695 -24627.701663 3919.902844
-15607.711519 -24800.592134 3464.762550
-5102.856629 4983.914812 -12750.470356
-5918.375672 4709.917296 -12208.948830
-5102.856629 4983.914812 -12750.470356
-4099.168637 5259.776040 -13478.297121
-1652.886929 -28904.710814 22276.700258
-1641.332050 -29412.000004 21780.965947
-1641.332050 29411.999984 21780.965947
-1636.035361 29179.461604 21553.724244
-1652.886929 -28904.710814 22276.700258
-1765.820192 -28089.185682 22979.337057
-14547.801086 -4930.791566 -22832.560171
-14223.087677 -4606.078156 -22832.560171
-14547.801086 -4930.791566 -22832.560171
-15385.811904 -5768.802384 -22832.560171
-28867.707727 -1610.746546 1034.950972
-29273.796838 -1710.279310 728.394626
-28867.707727 -1610.746546 1034.950972
-28605.793920 -1434.458215 1120.576449
-28867.707727 -1610.746546 1034.950972
-28900.670750 -1581.226852 1038.394302
-14706.384999 10076.910968 28312.585957
-14810.199119 9612.306942 28673.375863
-14706.384999 10076.910968 28312.585957
-14512.173645 10693.548994 27890.160118
-17112.457760 -22111.358626 -11823.623967
-16395.981760 -22111.358626 -12540.087444
-17112.457760 -22111.358626 -11823.623967
-18149.873845 -22111.376480 -10778.918420
-27510.814357 24175.583308 -13962.106772
-28712.302900 24113.626562 -12822.567648
-27510.814357 24175.583308 -13962.106772
-26795.436708 24074.169555 -14778.901873
-17319.114519 394.615449 6825.384401
-18096.804607 1001.611393 5440.698368
-17319.114519 394.615449 6825.384401
-17166.140929 87.882486 7285.128164
-8596.652436 -10151.012472 16704.390513
-9208.853336 -9711.473325 16531.728760
-8596.652436 -10151.012472 16704.390513
-7974.985203 -10776.786930 16700.283288
27789.762439 -17757.434067 26721.524863
28335.528411 -17997.447043 26413.381427
27789.762439 -17757.434067 26721.524863
28120.145901 -18496.186617 27129.893953
27789.762439 -17757.434067 26721.524863
28018.205061 -17306.679899 26504.243420
15359.504944 -8078.321132 21728.414767
15816.889880 -8004.384425 21344.966538
15359.504944 -8078.321132 21728.414767
14971.199671 -8363.661151 21831.380021
15359.504944 -8078.321132 21728.414767
16715.538125 -8238.492653 22924.276428
8176.439743 4694.680961 27318.351659
8673.731361 3547.411768 26668.374085
8176.439743 4694.680961 27318.351659
7584.873305 5655.200908 27687.305169
-4418.852800 -17844.854022 -23794.689691
-3656.172018 -18607.589652 -23794.689691
-4418.852800 -17844.854022 -23794.689691
-5179.398963 -17084.307759 -23794.689691
20955.051772 -674.922031 5329.195943
20527.227241 -1155.789469 4420.503975
20955.051772 -674.922031 5329.195943
21395.301575 72.284415 6516.652192
24326.843862 -22563.178380 13647.888830
25307.702287 -23084.535884 14107.389751
24326.843862 -22563.178380 13647.888830
24147.883240 -23084.535884 12947.570703
24326.843862 -22563.178380 13647.888830
23736.256140 -21685.964790 13934.514688
24762.190825 -17967.462965 18678.951215
25407.951867 -17620.205881 19671.969341
24762.190825 -17967.462965 18678.951215
24261.798595 -18567.702321 17578.319629
-13251.765700 27697.116841 -17308.252209
-13928.092015 27700.945107 -16628.097628
-13251.765700 27697.116841 -17308.252209
-12557.785966 27587.912167 -18111.436617
-6519.688831 -12357.237837 -23655.926180
-6519.688831 -12037.693652 -23978.332476
-6519.688831 -12357.237837 -23655.926180
-6519.688831 -13098.535503 -22906.391433
14904.763941 -733.754210 22940.557165
14226.937201 -1467.797905 22884.340211
14904.763941 -733.754210 22940.557165
15619.012970 59.199909 23019.262255
23420.100958 -751.954407 -2164.328705
22590.199488 -928.887027 -1157.494616
23420.100958 -751.954407 -2164.328705
24383.796808 -958.753936 -2921.225027
-17465.469328 -2636.995163 17260.727954
-18342.282881 -1746.664678 17260.727954
-17465.469328 -2636.995163 17260.727954
-17121.345064 -2968.893109 17260.727954
122.067507 27927.798121 10502.653915
798.443477 27914.216074 11165.447838
122.067507 27927.798121 10502.653915
[...]
CELL_DATA 24445
VECTORS Burgers FLOAT
0.000000 0.000000 0.000000
0.707107 0.707107 0.000000
-0.707107 -0.707107 0.000000
-0.000000 -0.707107 0.707107
0.000000 0.707107 -0.707107
0.707107 0.707107 0.000000
-0.707107 -0.707107 -0.000000
-0.707107 0.000000 -0.707107
0.707107 -0.000000 0.707107
-0.707107 -0.000000 -0.707107
-0.000000 0.707107 0.707107
0.707107 -0.707107 -0.000000
0.000000 0.707107 0.707107
-0.000000 -0.707107 0.707107
0.000000 0.707107 -0.707107
-0.000000 -0.707107 -0.707107
0.707107 0.707107 0.000000
-0.707107 0.000000 0.707107
-0.000000 -0.707107 -0.707107
0.000000 0.707107 -0.707107
-0.000000 -0.707107 0.707107
-0.707107 0.000000 -0.707107
0.707107 0.000000 0.707107
0.707107 0.000000 0.707107
-0.000000 0.707107 -0.707107
-0.707107 -0.707107 0.000000
-0.000000 0.707107 0.707107
0.000000 -0.707107 -0.707107
-0.000000 0.707107 -0.707107
0.707107 -0.000000 0.707107
-0.707107 -0.707107 0.000000
0.707107 -0.707107 -0.000000
-0.707107 0.707107 0.000000
0.000000 0.707107 -0.707107
-0.000000 -0.707107 0.707107
0.000000 -0.707107 -0.707107
-0.000000 0.707107 0.707107
0.707107 -0.000000 0.707107
-0.707107 0.000000 -0.707107
0.707107 0.000000 -0.707107
-0.707107 -0.000000 0.707107
-0.707107 0.707107 0.000000
0.707107 -0.707107 -0.000000
0.000000 -0.707107 -0.707107
0.707107 0.707107 -0.000000
-0.707107 -0.000000 0.707107
0.000000 -0.707107 -0.707107
-0.000000 0.707107 0.707107
-0.000000 0.000000 1.414214
-0.000000 0.707107 -0.707107
0.000000 -0.707107 -0.707107
0.000000 0.707107 0.707107
-0.000000 -0.707107 -0.707107
-0.707107 -0.000000 -0.707107
0.707107 -0.707107 0.000000
-0.000000 0.707107 0.707107
-0.000000 0.707107 -0.707107
0.000000 -0.707107 0.707107
0.707107 -0.000000 0.707107
-0.707107 0.000000 -0.707107
0.707107 0.707107 0.000000
-0.707107 -0.707107 -0.000000
-0.707107 -0.707107 0.000000
0.707107 0.707107 -0.000000
0.707107 0.000000 0.707107
0.000000 0.707107 -0.707107
-0.707107 -0.707107 -0.000000
0.000000 -0.707107 0.707107
-0.000000 0.707107 -0.707107
0.000000 0.707107 0.707107
-0.000000 -0.707107 -0.707107
0.707107 -0.707107 0.000000
-0.707107 0.707107 -0.000000
0.707107 0.707107 -0.000000
-0.707107 -0.707107 0.000000
0.000000 0.707107 0.707107
0.000000 0.707107 0.707107
-0.000000 -0.707107 -0.707107
-0.707107 0.707107 -0.000000
0.707107 -0.707107 0.000000
0.707107 -0.000000 0.707107
-0.707107 -0.707107 -0.000000
-0.000000 0.707107 -0.707107
0.000000 0.707107 -0.707107
-0.000000 -0.707107 0.707107
-0.707107 0.000000 -0.707107
0.707107 -0.000000 0.707107
0.707107 0.707107 0.000000
-0.707107 -0.707107 -0.000000
-0.707107 0.000000 -0.707107
0.707107 -0.000000 0.707107
0.000000 -0.707107 -0.707107
-0.000000 0.707107 0.707107
-0.707107 0.707107 0.000000
0.707107 -0.000000 -0.707107
-0.000000 -0.707107 0.707107
-0.707107 0.000000 0.707107
0.707107 0.707107 0.000000
-0.000000 -0.707107 -0.707107
-0.000000 0.707107 0.707107
0.000000 -0.707107 -0.707107
0.707107 0.707107 0.000000
-0.707107 -0.707107 -0.000000
0.000000 0.707107 0.707107
-0.000000 -0.707107 -0.707107
0.707107 -0.000000 0.707107
-0.000000 -0.707107 -0.707107
-0.707107 0.707107 -0.000000
-0.000000 0.707107 0.707107
0.000000 -0.707107 -0.707107
0.707107 -0.000000 -0.707107
-0.707107 0.000000 0.707107
-0.000000 0.707107 0.707107
-0.000000 -0.707107 -0.707107
-0.707107 -0.707107 -0.000000
0.707107 0.707107 0.000000
0.000000 0.707107 -0.707107
-0.000000 -0.707107 0.707107
-0.707107 -0.707107 0.000000
0.707107 0.707107 -0.000000
-0.707107 0.000000 -0.707107
0.707107 -0.000000 0.707107
0.707107 0.707107 -0.000000
0.000000 -0.707107 0.707107
-0.707107 -0.000000 -0.707107
-0.707107 0.000000 0.707107
0.707107 0.707107 0.000000
-0.000000 -0.707107 -0.707107
-0.000000 0.707107 0.707107
0.707107 0.000000 -0.707107
0.707107 0.000000 -0.707107
-0.707107 -0.707107 0.000000
0.000000 -0.707107 -0.707107
-0.000000 0.707107 0.707107
0.707107 0.000000 -0.707107
0.707107 0.000000 -0.707107
-0.707107 -0.000000 0.707107
0.707107 0.000000 0.707107
-0.707107 -0.000000 -0.707107
0.707107 -0.000000 -0.707107
-0.707107 0.707107 0.000000
0.000000 -0.707107 0.707107
-0.707107 -0.707107 0.000000
0.707107 0.707107 -0.000000
0.707107 0.707107 -0.000000
-0.707107 0.000000 0.707107
0.000000 -0.707107 -0.707107
0.000000 0.707107 0.707107
-0.000000 -0.707107 -0.707107
0.707107 0.000000 0.707107
-0.707107 -0.000000 -0.707107
-0.707107 0.000000 0.707107
0.707107 -0.000000 -0.707107
0.707107 -0.707107 0.000000
-0.707107 0.707107 -0.000000
0.000000 0.707107 -0.707107
-0.000000 -0.707107 0.707107
0.707107 0.707107 -0.000000
-0.707107 -0.000000 -0.707107
-0.707107 -0.707107 -0.000000
0.707107 0.000000 0.707107
-0.000000 0.707107 0.707107
0.707107 -0.707107 -0.000000
-0.707107 0.707107 0.000000
0.000000 -0.707107 -0.707107
0.707107 -0.000000 0.707107
-0.707107 0.000000 -0.707107
-0.707107 -0.707107 -0.000000
0.707107 -0.000000 -0.707107
-0.000000 0.707107 0.707107
-0.707107 -0.000000 0.707107
0.707107 0.707107 -0.000000
0.000000 -0.707107 -0.707107
-0.707107 -0.000000 0.707107
0.707107 -0.707107 -0.000000
0.000000 0.707107 -0.707107
-0.707107 0.000000 0.707107
0.707107 -0.000000 -0.707107
-0.000000 -0.707107 -0.707107
-0.707107 0.707107 0.000000
0.707107 0.000000 0.707107
-0.707107 -0.707107 0.000000
0.707107 -0.000000 0.707107
0.707107 -0.000000 0.707107
0.000000 0.707107 -0.707107
-0.000000 0.707107 -0.707107
0.000000 -0.707107 0.707107
0.707107 0.000000 0.707107
-0.707107 -0.000000 -0.707107
0.000000 -0.707107 0.707107
-0.000000 0.707107 -0.707107
-0.707107 -0.000000 -0.707107
0.707107 -0.000000 0.707107
-0.000000 -0.707107 -0.707107
0.000000 0.707107 0.707107
0.707107 -0.000000 0.707107
-0.707107 0.000000 -0.707107
-0.000000 0.707107 0.707107
0.000000 -0.707107 -0.707107
0.000000 0.707107 -0.707107
0.000000 -0.707107 0.707107
-0.707107 -0.707107 0.000000
0.707107 0.000000 -0.707107
0.000000 0.707107 0.707107
-0.707107 0.000000 0.707107
0.707107 -0.000000 -0.707107
0.707107 0.000000 -0.707107
-0.000000 -0.707107 0.707107
-0.707107 0.707107 0.000000
-0.707107 -0.000000 -0.707107
-0.707107 -0.000000 -0.707107
0.707107 0.000000 0.707107
-0.000000 0.707107 -0.707107
0.707107 -0.000000 0.707107
-0.707107 -0.707107 0.000000
-0.707107 0.000000 0.707107
0.707107 0.000000 -0.707107
0.707107 0.000000 -0.707107
-0.707107 -0.000000 0.707107
0.707107 -0.707107 0.000000
-0.707107 0.707107 -0.000000
-0.000000 -0.707107 0.707107
0.000000 0.707107 -0.707107
-0.707107 0.000000 0.707107
0.707107 -0.000000 -0.707107
0.000000 -0.707107 -0.707107
0.000000 0.707107 0.707107
0.707107 -0.000000 0.707107
-0.707107 0.707107 -0.000000
-0.000000 -0.707107 -0.707107
0.707107 0.000000 0.707107
-0.707107 -0.000000 -0.707107
-0.707107 -0.000000 0.707107
0.707107 0.000000 -0.707107
0.707107 0.000000 -0.707107
-0.707107 0.000000 -0.707107
0.707107 -0.000000 0.707107
0.707107 0.000000 -0.707107
-0.707107 -0.000000 0.707107
0.707107 -0.000000 -0.707107
-0.707107 0.000000 0.707107
-0.000000 0.707107 0.707107
0.000000 -0.707107 -0.707107
0.000000 0.707107 -0.707107
-0.000000 -0.707107 0.707107
-0.000000 -0.707107 0.707107
0.707107 0.000000 0.707107
-0.707107 -0.000000 -0.707107
-0.707107 -0.707107 0.000000
-0.707107 -0.707107 0.000000
0.707107 0.707107 -0.000000
0.707107 0.000000 0.707107
-0.707107 -0.000000 -0.707107
0.707107 0.000000 0.707107
-0.707107 -0.000000 -0.707107
0.707107 0.707107 -0.000000
-0.707107 -0.707107 0.000000
-0.707107 0.707107 0.000000
0.707107 -0.707107 -0.000000
0.000000 0.000000 1.414214
-0.000000 -0.000000 -1.414214
-0.000000 0.707107 -0.707107
-0.000000 -0.707107 0.707107
0.000000 -0.707107 -0.707107
-0.000000 0.707107 0.707107
0.707107 -0.000000 0.707107
-0.707107 0.000000 -0.707107
-0.707107 -0.707107 0.000000
0.707107 0.707107 -0.000000
0.707107 0.000000 -0.707107
-0.707107 -0.000000 0.707107
-0.707107 0.000000 -0.707107
0.707107 -0.000000 0.707107
-0.000000 -0.707107 -0.707107
0.000000 0.707107 0.707107
-0.707107 0.000000 0.707107
0.707107 -0.000000 -0.707107
0.707107 -0.707107 0.000000
-0.707107 0.707107 -0.000000
0.000000 -0.707107 -0.707107
0.707107 0.707107 -0.000000
-0.707107 0.000000 0.707107
-0.707107 0.707107 -0.000000
0.000000 -0.707107 -0.707107
0.707107 0.000000 0.707107
-0.707107 0.000000 -0.707107
0.707107 -0.000000 0.707107
-0.707107 -0.707107 -0.000000
0.707107 0.707107 0.000000
-0.000000 -0.000000 -1.414214
-0.000000 -0.000000 1.414214
-0.707107 -0.000000 0.707107
0.707107 -0.000000 -0.707107
0.000000 0.707107 0.707107
-0.000000 -0.707107 -0.707107
-0.707107 0.707107 0.000000
0.707107 -0.707107 -0.000000
-0.707107 0.000000 0.707107
0.707107 0.000000 -0.707107
0.707107 -0.707107 -0.000000
-0.707107 0.707107 -0.000000
-0.000000 0.707107 -0.707107
-0.707107 -0.707107 0.000000
0.707107 0.000000 0.707107
-0.707107 0.000000 -0.707107
-0.707107 0.000000 -0.707107
-0.000000 0.707107 0.707107
0.707107 -0.707107 0.000000
0.707107 -0.707107 0.000000
-0.000000 0.707107 0.707107
0.000000 -0.707107 -0.707107
0.000000 -0.707107 0.707107
-0.000000 0.707107 -0.707107
0.000000 -0.707107 0.707107
0.707107 -0.000000 -0.707107
-0.707107 0.707107 0.000000
0.000000 0.707107 -0.707107
-0.000000 -0.707107 0.707107
0.707107 -0.000000 0.707107
-0.707107 0.000000 -0.707107
0.000000 -0.707107 -0.707107
0.707107 0.707107 -0.000000
-0.707107 -0.000000 0.707107
0.000000 0.707107 -0.707107
0.707107 0.000000 0.707107
-0.707107 -0.707107 -0.000000
-0.707107 -0.000000 -0.707107
0.707107 -0.000000 0.707107
-0.000000 0.707107 -0.707107
0.000000 -0.707107 0.707107
0.707107 -0.000000 -0.707107
-0.707107 0.000000 0.707107
-0.000000 0.707107 0.707107
0.000000 -0.707107 -0.707107
0.707107 0.707107 0.000000
-0.707107 -0.707107 -0.000000
-0.000000 0.707107 0.707107
0.000000 -0.707107 -0.707107
-0.000000 0.707107 -0.707107
-0.707107 -0.707107 -0.000000
0.707107 0.000000 0.707107
-0.707107 0.000000 0.707107
0.707107 -0.000000 -0.707107
0.707107 -0.707107 0.000000
-0.707107 0.707107 -0.000000
0.707107 0.000000 -0.707107
-0.707107 -0.000000 0.707107
-0.707107 0.000000 -0.707107
0.000000 -0.707107 0.707107
0.707107 0.707107 -0.000000
0.707107 -0.707107 -0.000000
-0.707107 0.707107 0.000000
0.000000 -0.707107 -0.707107
-0.000000 0.707107 0.707107
0.000000 0.707107 -0.707107
-0.000000 -0.707107 0.707107
-0.707107 -0.707107 -0.000000
0.707107 0.707107 0.000000
-0.000000 -0.707107 -0.707107
-0.000000 -0.707107 0.707107
0.000000 1.414214 0.000000
0.000000 -0.707107 -0.707107
0.000000 0.707107 0.707107
-0.000000 0.707107 -0.707107
-0.707107 -0.707107 0.000000
0.707107 -0.000000 0.707107
0.707107 0.000000 -0.707107
-0.707107 -0.000000 0.707107
-0.707107 0.707107 0.000000
0.707107 -0.707107 -0.000000
0.000000 0.707107 -0.707107
-0.000000 -0.707107 0.707107
0.000000 -0.707107 -0.707107
-0.000000 0.707107 0.707107
-0.707107 -0.707107 0.000000
0.707107 0.707107 -0.000000
-0.707107 -0.707107 0.000000
0.707107 0.707107 -0.000000
0.000000 -0.707107 -0.707107
-0.000000 0.707107 0.707107
0.707107 0.707107 0.000000
-0.707107 -0.707107 -0.000000
0.707107 -0.000000 0.707107
-0.707107 0.000000 -0.707107
0.000000 -0.707107 -0.707107
-0.000000 0.707107 0.707107
-0.707107 0.707107 0.000000
0.707107 -0.707107 -0.000000
0.707107 0.707107 0.000000
-0.707107 -0.707107 -0.000000
0.707107 -0.707107 0.000000
-0.707107 0.707107 -0.000000
0.707107 0.000000 0.707107
-0.707107 0.000000 -0.707107
0.000000 -0.707107 -0.707107
-0.000000 0.707107 0.707107
-0.707107 0.000000 -0.707107
0.707107 0.000000 0.707107
0.707107 -0.707107 -0.000000
-0.707107 -0.000000 -0.707107
0.000000 0.707107 0.707107
-0.707107 -0.000000 0.707107
-0.000000 -0.707107 -0.707107
0.707107 0.707107 -0.000000
-0.707107 0.707107 0.000000
0.707107 -0.707107 -0.000000
0.000000 0.707107 0.707107
-0.707107 -0.707107 0.000000
0.707107 0.000000 -0.707107
-0.000000 0.707107 0.707107
0.000000 -0.707107 -0.707107
0.000000 0.707107 -0.707107
-0.000000 -0.707107 0.707107
0.707107 -0.707107 0.000000
-0.707107 0.707107 -0.000000
0.000000 -0.707107 -0.707107
0.000000 0.707107 0.707107
0.707107 -0.000000 0.707107
-0.707107 0.000000 -0.707107
0.707107 0.000000 0.707107
-0.707107 -0.000000 -0.707107
-0.707107 -0.000000 0.707107
0.707107 0.000000 -0.707107
0.707107 0.707107 0.000000
-0.707107 -0.707107 -0.000000
0.707107 -0.000000 -0.707107
0.707107 -0.000000 0.707107
-1.414214 -0.000000 -0.000000
0.707107 -0.000000 -0.707107
-0.707107 0.000000 0.707107
0.000000 0.707107 0.707107
0.707107 -0.707107 -0.000000
-0.707107 -0.000000 -0.707107
1.414214 0.000000 -0.000000
-0.707107 0.707107 -0.000000
-0.707107 -0.707107 0.000000
0.707107 0.000000 0.707107
-0.707107 -0.000000 0.707107
0.707107 0.000000 -0.707107
0.707107 -0.707107 0.000000
-0.707107 0.707107 -0.000000
-0.707107 0.000000 0.707107
0.707107 0.707107 -0.000000
-0.000000 -0.707107 -0.707107
-0.707107 0.000000 -0.707107
0.707107 -0.000000 0.707107
-0.000000 0.707107 -0.707107
0.000000 -0.707107 0.707107
-0.707107 -0.000000 0.707107
0.000000 -0.707107 -0.707107
0.707107 0.707107 -0.000000
-0.000000 -0.000000 1.414214
0.000000 0.000000 -1.414214
-0.707107 0.000000 0.707107
0.707107 -0.000000 -0.707107
0.000000 0.707107 0.707107
0.707107 -0.707107 0.000000
-0.707107 -0.000000 -0.707107
0.000000 -0.707107 -0.707107
-0.000000 0.707107 0.707107
-0.000000 -0.707107 -0.707107
0.000000 0.707107 0.707107
0.707107 0.000000 0.707107
-0.707107 -0.000000 -0.707107
-0.000000 0.707107 0.707107
-0.000000 -0.707107 -0.707107
0.707107 0.707107 0.000000
-0.707107 -0.707107 -0.000000
0.707107 0.000000 -0.707107
-0.707107 -0.000000 0.707107
-0.707107 0.000000 0.707107
0.707107 -0.000000 -0.707107
0.707107 0.707107 0.000000
-0.707107 -0.707107 -0.000000
0.000000 0.707107 0.707107
0.000000 -0.707107 -0.707107
0.000000 0.707107 -0.707107
-0.000000 -0.707107 0.707107
0.707107 0.000000 -0.707107
-0.707107 0.000000 0.707107
0.707107 0.000000 0.707107
-0.707107 -0.000000 -0.707107
-0.707107 -0.707107 -0.000000
0.707107 0.707107 0.000000
0.000000 -0.707107 0.707107
0.000000 0.707107 -0.707107
0.000000 0.707107 0.707107
-0.000000 -0.707107 -0.707107
0.707107 0.000000 -0.707107
-0.707107 -0.000000 0.707107
-0.707107 -0.000000 0.707107
0.707107 -0.707107 -0.000000
-0.707107 0.707107 -0.000000
-0.000000 -0.707107 0.707107
-0.000000 0.707107 -0.707107
-0.000000 0.707107 0.707107
0.000000 -0.707107 -0.707107
0.000000 -1.414214 0.000000
0.707107 0.707107 0.000000
-0.707107 0.707107 0.000000
-0.707107 -0.707107 0.000000
0.707107 0.707107 -0.000000
0.000000 -0.707107 -0.707107
-0.000000 0.707107 0.707107
-0.000000 0.707107 0.707107
0.000000 -0.707107 -0.707107
-0.000000 0.707107 0.707107
-0.707107 0.707107 -0.000000
0.000000 -0.707107 -0.707107
-0.000000 -0.707107 -0.707107
0.000000 0.707107 0.707107
0.000000 -0.707107 0.707107
0.707107 0.707107 0.000000
-0.707107 -0.000000 -0.707107
-0.707107 -0.707107 -0.000000
0.707107 0.707107 -0.000000
0.000000 0.707107 -0.707107
-0.000000 -0.707107 0.707107
0.707107 -0.707107 0.000000
-0.000000 0.707107 0.707107
-0.707107 0.000000 -0.707107
-0.707107 -0.707107 -0.000000
0.707107 0.707107 -0.000000
-0.000000 -0.000000 -1.414214
0.000000 0.000000 1.414214
-0.707107 0.000000 -0.707107
0.707107 -0.000000 0.707107
0.707107 0.707107 0.000000
-0.707107 -0.707107 -0.000000
-0.707107 0.707107 -0.000000
-0.000000 -0.707107 0.707107
0.707107 0.000000 -0.707107
0.707107 -0.000000 -0.707107
-0.707107 0.000000 0.707107
0.707107 -0.707107 0.000000
-0.707107 0.707107 -0.000000
0.000000 0.707107 0.707107
0.707107 0.000000 -0.707107
-0.707107 -0.707107 0.000000
0.707107 0.707107 -0.000000
-0.707107 -0.707107 -0.000000
0.000000 -0.707107 -0.707107
-0.000000 0.707107 0.707107
-0.000000 0.707107 0.707107
-0.000000 -0.707107 -0.707107
-0.707107 0.000000 0.707107
0.707107 -0.000000 -0.707107
-0.707107 0.707107 0.000000
0.707107 -0.707107 -0.000000
0.000000 -0.707107 0.707107
-0.000000 0.707107 -0.707107
-0.707107 0.707107 0.000000
0.707107 -0.707107 -0.000000
0.707107 0.000000 -0.707107
-0.707107 -0.000000 0.707107
0.000000 0.707107 -0.707107
-0.000000 -0.707107 0.707107
-0.000000 -0.707107 0.707107
0.707107 0.000000 -0.707107
0.707107 0.000000 -0.707107
-0.707107 0.707107 0.000000
-0.707107 0.707107 0.000000
0.000000 -0.707107 0.707107
-0.000000 0.707107 -0.707107
-0.707107 0.000000 -0.707107
0.707107 -0.000000 0.707107
0.707107 0.707107 0.000000
-0.707107 -0.707107 -0.000000
-0.707107 -0.707107 -0.000000
-0.707107 -0.707107 -0.000000
0.707107 0.707107 0.000000
0.000000 -0.707107 0.707107
-0.000000 0.707107 -0.707107
0.707107 -0.000000 0.707107
-0.707107 0.000000 -0.707107
-0.000000 0.707107 0.707107
0.707107 0.000000 -0.707107
0.000000 -0.707107 -0.707107
-0.707107 -0.000000 0.707107
0.707107 -0.707107 0.000000
-0.707107 0.707107 -0.000000
-0.707107 -0.707107 -0.000000
0.707107 0.707107 0.000000
-0.707107 -0.707107 -0.000000
-0.000000 -0.707107 -0.707107
0.000000 0.707107 0.707107
-0.000000 1.414214 -0.000000
-0.707107 -0.707107 -0.000000
-0.000000 -0.707107 0.707107
0.000000 0.000000 -1.414214
-0.000000 0.707107 0.707107
0.000000 -0.707107 -0.707107
-0.000000 0.707107 0.707107
-0.000000 -0.707107 0.707107
0.000000 0.707107 -0.707107
0.707107 0.000000 -0.707107
-0.707107 0.707107 0.000000
0.000000 -0.707107 0.707107
0.707107 -0.707107 0.000000
-0.000000 0.707107 0.707107
-0.707107 0.000000 -0.707107
-0.000000 0.707107 -0.707107
-0.707107 -0.000000 0.707107
0.707107 -0.707107 0.000000
-0.000000 -0.707107 -0.707107
0.707107 0.707107 -0.000000
-0.707107 -0.000000 0.707107
-0.707107 -0.000000 0.707107
0.707107 0.707107 -0.000000
0.000000 -0.707107 -0.707107
-0.707107 0.000000 0.707107
0.707107 -0.000000 -0.707107
-0.000000 0.707107 -0.707107
-0.000000 -0.000000 1.414214
0.000000 -0.707107 -0.707107
-0.000000 -0.707107 -0.707107
0.000000 0.707107 0.707107
-0.707107 -0.000000 -0.707107
0.707107 -0.000000 0.707107
0.000000 -0.707107 -0.707107
-0.000000 0.707107 0.707107
0.707107 -0.707107 -0.000000
-0.000000 0.707107 0.707107
-0.707107 0.000000 -0.707107
-0.707107 -0.000000 0.707107
0.707107 0.000000 -0.707107
-0.707107 -0.000000 0.707107
0.707107 0.000000 -0.707107
-0.707107 -0.000000 0.707107
0.707107 0.000000 -0.707107
0.707107 0.707107 0.000000
0.707107 0.000000 0.707107
-0.707107 -0.000000 -0.707107
-0.707107 0.000000 0.707107
0.707107 0.000000 -0.707107
0.707107 0.000000 -0.707107
-0.707107 -0.000000 0.707107
0.000000 0.707107 -0.707107
-0.000000 -0.707107 0.707107
-0.707107 0.000000 -0.707107
0.707107 0.707107 -0.000000
-0.000000 -0.707107 0.707107
0.000000 -0.707107 -0.707107
-0.000000 0.707107 0.707107
-0.707107 -0.000000 0.707107
0.707107 0.000000 -0.707107
-0.000000 0.707107 0.707107
0.000000 -0.707107 -0.707107
0.707107 0.000000 0.707107
-0.707107 -0.000000 -0.707107
0.707107 -0.000000 -0.707107
-0.707107 0.000000 0.707107
0.000000 -0.707107 0.707107
-0.000000 0.707107 -0.707107
-0.707107 -0.000000 -0.707107
0.707107 0.000000 0.707107
-0.707107 0.000000 -0.707107
0.707107 -0.000000 0.707107
-0.707107 0.000000 -0.707107
0.707107 -0.707107 0.000000
0.707107 -0.000000 -0.707107
0.000000 -0.707107 0.707107
-0.000000 -0.707107 0.707107
0.707107 -0.000000 -0.707107
-0.707107 0.707107 0.000000
-1.414214 -0.000000 -0.000000
1.414214 0.000000 0.000000
-0.707107 0.000000 0.707107
0.707107 -0.000000 -0.707107
-0.707107 0.000000 0.707107
0.707107 -0.000000 -0.707107
-0.707107 0.707107 0.000000
-0.707107 0.707107 0.000000
0.707107 -0.707107 -0.000000
0.000000 -0.707107 -0.707107
-0.000000 0.707107 0.707107
0.707107 -0.000000 0.707107
-0.707107 0.000000 -0.707107
-0.707107 -0.000000 -0.707107
-0.000000 0.707107 0.707107
0.707107 -0.707107 0.000000
-0.707107 -0.000000 -0.707107
0.707107 0.000000 0.707107
-0.000000 0.707107 0.707107
-0.000000 0.707107 0.707107
0.000000 -0.707107 -0.707107
0.000000 -0.707107 -0.707107
-0.000000 0.707107 0.707107
-0.707107 0.707107 -0.000000
0.707107 -0.707107 -0.000000
-0.707107 -0.707107 0.000000
0.000000 0.707107 -0.707107
0.707107 0.000000 0.707107
-0.707107 0.707107 -0.000000
-0.000000 -0.707107 0.707107
0.707107 -0.000000 -0.707107
-0.707107 0.000000 -0.707107
0.707107 -0.000000 0.707107
-0.707107 -0.707107 0.000000
0.707107 0.707107 -0.000000