# vtk DataFile Version 3.0
Configuration exported from OpenDiS
ASCII
DATASET UNSTRUCTURED_GRID
POINTS 50180 FLOAT
-29412.000000 -29412.000000 -29412.000000
29412.000000 -29412.000000 -29412.000000
-29412.000000 29412.000000 -29412.000000
-29412.000000 -29412.000000 29412.000000
29412.000000 29412.000000 -29412.000000
29412.000000 -29412.000000 29412.000000
-29412.000000 29412.000000 29412.000000
29412.000000 29412.000000 29412.000000
20996.182826 2834.471030 4605.808833
20996.610711 2851.252983 4589.454765
20996.182826 2834.471030 4605.808833
20435.048153 2963.793307 5296.265783
2664.269295 25270.585252 23172.987033
2495.563953 26208.810111 22403.467516
2664.269295 25270.585252 23172.987033
2798.786377 25952.715420 23720.794293
-6910.333769 -24681.638491 6665.927943
-7646.345947 -24582.794338 5831.071612
-6910.333769 -24681.638491 6665.927943
-6020.807060 -24654.272855 7528.089017
-2527.630154 -3990.160927 -16247.906032
-2356.790537 -4545.272728 -16632.178215
-2527.630154 -3990.160927 -16247.906032
-2454.773830 -3505.874952 -15690.763733
-2527.630154 -3990.160927 -16247.906032
-2527.630154 -4344.550816 -15893.516142
7985.848665 26463.418340 -24770.994746
7730.294390 26184.130908 -25305.836453
7985.848665 26463.418340 -24770.994746
8184.122205 26704.948271 -24331.191278
-15056.996038 -13369.803571 -20184.223077
-14597.041004 -12392.523394 -20701.548220
-15056.996038 -13369.803571 -20184.223077
-15389.062767 -14327.261054 -19558.832323
-28368.232145 14295.396292 -29023.769651
-27660.576049 13587.740196 -29023.769651
-28368.232145 14295.396292 -29023.769651
-29098.531133 14275.996382 -28274.070754
-28368.232145 14295.396292 -29023.769651
-27466.344930 15139.304602 -29081.748555
15405.350488 -690.959173 -10565.086050
16050.690255 -1216.303059 -11735.769703
15405.350488 -690.959173 -10565.086050
14542.772182 -326.110195 -9337.658765
-8729.101493 -28015.697749 -25311.659722
-8385.067513 -28337.770435 -25977.766389
-8729.101493 -28015.697749 -25311.659722
-9404.769498 -27668.529341 -24288.823310
-23916.232987 -22002.972459 23844.406474
-23817.457218 -21425.042974 23365.252757
-23916.232987 -22002.972459 23844.406474
-24075.536885 -22402.004443 24084.134607
-23916.232987 -22002.972459 23844.406474
-24002.027409 -21406.304315 23333.532752
-23916.232987 -22002.972459 23844.406474
-24175.891883 -22112.884102 23994.153726
-23608.614520 674.145955 -17348.838438
-23608.615288 1387.702952 -18062.391613
-23608.614520 674.145955 -17348.838438
-23608.614075 -65.016202 -16618.207242
17129.375080 28901.551541 19344.194103
17193.421922 28942.009234 19320.604954
17129.375080 28901.551541 19344.194103
16357.342456 29411.999995 20626.675171
16357.342456 -29411.999993 20626.675171
16255.045590 -29344.363904 20796.608135
17129.375080 28901.551541 19344.194103
16814.538449 27812.522696 18570.001879
4857.091696 -14259.068813 26050.077898
4754.383577 -15093.987791 25112.450802
4857.091696 -14259.068813 26050.077898
3885.376335 -15230.785989 26050.077898
12654.051098 -15632.445379 -23366.848676
13953.257508 -15599.469368 -22100.803131
12654.051098 -15632.445379 -23366.848676
12109.267450 -15723.630354 -23820.381448
-12236.793740 98.320166 20947.457029
-11813.994522 -826.265931 21449.243908
-12236.793740 98.320166 20947.457029
-12710.160319 1054.833492 20464.310282
-14744.343499 23205.076623 -9591.581922
-14512.021775 24207.794064 -8356.542757
-14744.343499 23205.076623 -9591.581922
-15180.079947 22783.034174 -9605.275921
-10854.173290 -21963.335065 -24033.725052
-10387.580489 -21285.664657 -23822.647446
-10854.173290 -21963.335065 -24033.725052
-11320.460970 -22469.816255 -24073.918562
9372.033969 -22707.730401 1111.534524
9191.809331 -22966.886375 672.153912
9372.033969 -22707.730401 1111.534524
10006.611264 -22590.288562 1863.553658
271.787212 -10122.638690 27220.508886
-475.015240 -9958.127870 26309.195614
271.787212 -10122.638690 27220.508886
1099.655069 -9923.317452 27849.055505
-3608.489560 22487.738773 -347.447568
-3608.489560 23256.301092 -989.997660
-3608.489560 22487.738773 -347.447568
-3608.489564 21943.263529 205.916031
-3036.596901 -11878.474709 -3310.654197
-2121.318444 -11878.474709 -2417.448232
-3036.596901 -11878.474709 -3310.654197
-3316.386272 -11878.474709 -3587.129581
-3036.596901 -11878.474709 -3310.654197
-4401.872336 -12921.084146 -2987.988198
-3036.596901 -11878.474709 -3310.654197
-2098.565066 -11214.920709 -3585.132031
27080.016317 -22261.800547 15013.406749
26386.632745 -23040.941184 14927.649684
27080.016317 -22261.800547 15013.406749
26559.649898 -21642.908810 15111.932067
-22232.772994 -1788.625244 -14826.454116
-21363.547578 -1788.625244 -15695.679532
-22232.772994 -1788.625244 -14826.454116
-22420.029499 -2101.492166 -14326.330690
-22232.772994 -1788.625244 -14826.454116
-22913.538417 -1434.463117 -15155.285181
-21038.050526 21096.352489 -7451.919048
-22027.869312 20879.652814 -8225.038160
-21038.050526 21096.352489 -7451.919048
-19957.757448 20794.433528 -6069.707009
5806.417047 -9312.985394 -26878.513121
6182.309091 -9368.013899 -27199.376660
5806.417047 -9312.985394 -26878.513121
5809.555934 -8845.342556 -26407.731396
5806.417047 -9312.985394 -26878.513121
6077.679913 -8818.960252 -27101.275397
-21276.477637 -10284.502097 23844.821314
-21936.633242 -9833.655098 24054.129920
-21276.477637 -10284.502097 23844.821314
-20391.887219 -10034.195095 23210.537898
-21276.477637 -10284.502097 23844.821314
-21748.805770 -8993.301778 23025.949127
8033.199540 13153.331233 -27329.438000
8334.384872 12883.701728 -27900.252837
8033.199540 13153.331233 -27329.438000
7625.348520 13619.738845 -26455.179367
28816.595044 21698.589594 25562.452679
28677.429053 21444.140294 25168.837387
28816.595044 21698.589594 25562.452679
29020.352755 21959.737700 25097.546862
28816.595044 21698.589594 25562.452679
29035.486233 21371.420521 26108.780142
8708.335250 -9405.955102 -28747.270909
7583.253268 -8482.122157 -28546.021873
8708.335250 -9405.955102 -28747.270909
9532.102055 -10113.795417 -28861.824657
25825.647289 -3562.393414 16418.710526
25505.392334 -4032.200785 15628.647724
25825.647289 -3562.393414 16418.710526
26052.047279 -2936.942810 17270.561865
-302.370866 16914.232829 -19676.250360
-302.370866 16193.408443 -20397.074746
-302.370866 16914.232829 -19676.250360
-302.370866 17722.365759 -18868.117430
-16757.825535 3944.852939 7839.285960
-16160.971989 4936.553120 8234.127022
-16757.825535 3944.852939 7839.285960
-16720.612285 3944.852939 7802.683584
-16757.825535 3944.852939 7839.285960
-17349.140659 3944.852940 8430.746066
-1509.536528 -28972.418536 22352.342938
-1542.248485 -29412.000004 21880.049512
-1542.248485 29411.999984 21880.049512
-1556.821412 29216.169811 21669.646400
-1509.536528 -28972.418536 22352.342938
-1608.633629 -28161.861661 23063.847641
13324.775737 -5996.135025 -463.214691
14217.222423 -5570.644548 -930.170972
13324.775737 -5996.135025 -463.214691
12842.191972 -6221.103205 -205.599042
5167.378186 9667.181286 27638.651157
4218.047422 8766.958460 27589.543218
5167.378186 9667.181286 27638.651157
4605.249274 10228.117583 27638.651157
5167.378186 9667.181286 27638.651157
6085.548574 8747.842773 27638.651157
5167.378186 9667.181286 27638.651157
5432.493049 10009.137788 27561.809517
-10162.132853 -26825.819283 -25334.230586
-9834.520499 -27189.228749 -24643.208765
-10162.132853 -26825.819283 -25334.230586
-10629.084450 -26500.606928 -26126.394539
-17084.477137 -22111.358626 -11851.604102
-16395.981760 -22111.358626 -12540.087444
-17084.477137 -22111.358626 -11851.604102
-18211.575185 -22111.377529 -10716.788912
-27422.978312 24212.983279 -14012.542847
-28712.302900 24113.626562 -12822.567648
-27422.978312 24212.983279 -14012.542847
-26670.538506 24093.123955 -14884.845675
-29315.246220 -14456.278068 -12996.205843
-29162.713127 -15073.319022 -13765.779889
-29315.246220 -14456.278068 -12996.205843
-29408.776572 -13784.312231 -12230.709653
-8817.245700 -10182.309069 16452.500651
-9388.788085 -9771.920629 16291.346706
-8817.245700 -10182.309069 16452.500651
-8296.981318 -10675.076956 16479.997147
-29161.640146 -26812.704888 26529.454273
-28701.480582 -27612.840426 26870.782559
-29161.640146 -26812.704888 26529.454273
-29412.000002 -26710.912775 26678.022016
29411.999986 -26710.912775 26678.022016
28889.488291 -26498.468291 26988.089240
-29161.640146 -26812.704888 26529.454273
-28901.364480 -26499.137763 25955.611483
15359.504944 -8171.947983 21634.787917
15955.047185 -8109.455702 21101.737956
15359.504944 -8171.947983 21634.787917
14971.199671 -8363.661151 21831.380021
15359.504944 -8171.947983 21634.787917
16384.241876 -9024.026252 21807.446580
8275.170355 4737.224638 27459.625949
8837.902686 3853.123419 27138.257061
8275.170355 4737.224638 27459.625949
7584.873305 5658.030100 27690.134361
-4418.528245 -17845.178618 -23794.689691
-3640.181934 -18623.661057 -23794.689691
-4418.528245 -17845.178618 -23794.689691
-5179.398847 -17084.307876 -23794.689691
16351.122181 -12588.611134 -8736.203252
17614.600408 -13870.606417 -8717.686196
16351.122181 -12588.611134 -8736.203252
15117.058807 -12111.433902 -7979.317110
-9008.886788 11717.642972 -17357.569958
-9284.770538 12191.623808 -16607.705372
-9008.886788 11717.642972 -17357.569958
-8726.757841 10911.453454 -18445.888423
24524.586543 -17477.120910 18931.688988
24985.931010 -17296.196454 19573.957911
24524.586543 -17477.120910 18931.688988
24160.877173 -17808.229936 18236.867966
-6988.030101 -23893.298991 -16338.403640
-6186.884154 -24361.858666 -17608.109262
-6988.030101 -23893.298991 -16338.403640
-6947.438967 -23764.038212 -16249.733994
-6988.030101 -23893.298991 -16338.403640
-8159.377913 -24645.431117 -15919.187954
-6519.688831 -12351.377159 -23661.839352
-6519.688831 -12063.023267 -23952.775988
-6519.688831 -12351.377159 -23661.839352
-6519.688831 -13117.159845 -22887.381170
-6305.303028 8733.740116 24964.324765
-7014.581462 7667.296183 25321.490264
-6305.303028 8733.740116 24964.324765
-5932.115045 9367.483016 24703.769848
-6305.303028 8733.740116 24964.324765
[...]
CELL_DATA 25087
VECTORS Burgers FLOAT
0.000000 0.000000 0.000000
0.707107 0.707107 0.000000
-0.707107 -0.707107 0.000000
0.707107 -0.000000 -0.707107
-0.707107 0.000000 0.707107
0.707107 0.707107 0.000000
-0.707107 -0.707107 -0.000000
0.707107 -0.707107 -0.000000
-0.707107 0.000000 -0.707107
-0.000000 0.707107 0.707107
0.000000 0.707107 0.707107
-0.000000 -0.707107 -0.707107
0.000000 -0.707107 0.707107
-0.000000 0.707107 -0.707107
0.707107 0.707107 0.000000
-0.707107 0.000000 0.707107
-0.000000 -0.707107 -0.707107
-0.707107 -0.000000 0.707107
0.707107 0.000000 -0.707107
0.000000 0.707107 0.707107
-0.000000 -0.707107 -0.707107
0.707107 0.000000 0.707107
-0.000000 0.707107 -0.707107
-0.707107 0.000000 0.707107
-0.000000 -0.707107 -0.707107
-0.000000 0.707107 0.707107
0.000000 -0.707107 -0.707107
-0.707107 -0.707107 0.000000
0.707107 -0.000000 -0.707107
0.707107 -0.000000 -0.707107
-0.000000 0.707107 0.707107
0.707107 -0.707107 -0.000000
-0.707107 0.707107 0.000000
0.000000 0.707107 -0.707107
-0.000000 -0.707107 0.707107
0.707107 -0.707107 0.000000
-0.707107 0.707107 -0.000000
0.707107 0.000000 0.707107
-0.707107 -0.000000 -0.707107
0.707107 0.000000 -0.707107
-0.707107 -0.000000 0.707107
-0.707107 0.707107 0.000000
0.707107 -0.707107 -0.000000
0.000000 0.707107 -0.707107
-0.000000 -0.707107 0.707107
0.000000 0.707107 0.707107
-0.000000 -0.707107 -0.707107
0.707107 0.000000 -0.707107
-0.707107 -0.000000 0.707107
0.707107 0.000000 -0.707107
-0.707107 -0.000000 0.707107
0.000000 0.707107 0.707107
-0.000000 -0.707107 -0.707107
-0.707107 -0.000000 -0.707107
0.707107 -0.707107 0.000000
-0.000000 0.707107 0.707107
-0.000000 0.707107 -0.707107
0.000000 -0.707107 0.707107
-0.707107 -0.000000 0.707107
0.000000 -0.707107 -0.707107
0.707107 0.707107 -0.000000
-0.000000 0.707107 -0.707107
-0.707107 -0.000000 0.707107
0.707107 -0.707107 -0.000000
-0.707107 -0.707107 0.000000
0.707107 0.707107 -0.000000
0.707107 0.000000 0.707107
0.000000 0.707107 -0.707107
-0.707107 -0.707107 -0.000000
0.000000 -0.707107 0.707107
-0.000000 0.707107 -0.707107
0.000000 0.707107 0.707107
-0.000000 -0.707107 -0.707107
-0.000000 -0.707107 0.707107
-0.000000 0.707107 -0.707107
0.000000 -0.707107 -0.707107
-0.707107 0.707107 -0.000000
0.707107 0.000000 0.707107
0.000000 0.707107 0.707107
0.000000 0.707107 0.707107
-0.000000 -0.707107 -0.707107
-0.707107 0.000000 0.707107
0.707107 -0.000000 -0.707107
0.000000 -0.707107 0.707107
0.707107 0.707107 0.000000
-0.707107 -0.707107 -0.000000
-0.000000 0.707107 -0.707107
0.000000 0.707107 -0.707107
-0.000000 -0.707107 0.707107
-0.707107 0.000000 -0.707107
0.707107 -0.000000 0.707107
0.707107 0.707107 0.000000
-0.707107 -0.707107 -0.000000
-0.707107 -0.707107 0.000000
0.707107 0.707107 -0.000000
0.000000 -0.707107 -0.707107
-0.000000 0.707107 0.707107
0.000000 0.707107 -0.707107
0.707107 -0.707107 0.000000
0.707107 -0.707107 0.000000
-0.707107 -0.000000 0.707107
-0.707107 0.000000 0.707107
0.707107 0.707107 0.000000
-0.000000 -0.707107 -0.707107
-0.000000 0.707107 0.707107
0.000000 -0.707107 -0.707107
0.707107 0.707107 0.000000
-0.707107 -0.707107 -0.000000
-0.000000 -0.707107 0.707107
0.000000 0.707107 -0.707107
0.000000 -0.707107 -0.707107
-0.000000 0.707107 0.707107
-0.000000 0.707107 0.707107
0.000000 -0.707107 -0.707107
-0.707107 0.000000 0.707107
-0.000000 -0.707107 -0.707107
0.707107 0.707107 -0.000000
-0.000000 0.707107 0.707107
-0.000000 -0.707107 -0.707107
-0.000000 0.707107 -0.707107
0.000000 -0.707107 0.707107
0.707107 -0.707107 0.000000
-0.707107 0.707107 0.000000
0.707107 0.707107 0.000000
-0.707107 -0.707107 -0.000000
0.000000 0.707107 0.707107
0.707107 -1.414214 -0.707107
-0.707107 0.707107 -0.000000
-0.707107 0.000000 -0.707107
0.707107 -0.000000 0.707107
0.707107 0.707107 -0.000000
0.000000 -0.707107 0.707107
-0.707107 -0.000000 -0.707107
-0.707107 0.000000 0.707107
0.707107 0.707107 0.000000
-0.000000 -0.707107 -0.707107
-0.000000 0.707107 0.707107
0.707107 0.000000 -0.707107
-0.707107 -0.707107 0.000000
-0.707107 0.000000 -0.707107
0.707107 -0.000000 -0.707107
0.707107 -0.000000 -0.707107
-0.000000 0.707107 0.707107
-0.000000 -0.707107 0.707107
0.707107 0.707107 -0.000000
-0.707107 0.000000 0.707107
-0.000000 -0.707107 -0.707107
0.707107 0.000000 0.707107
-0.707107 -0.000000 -0.707107
0.707107 -0.000000 -0.707107
-0.707107 0.707107 0.000000
0.000000 -0.707107 0.707107
-0.000000 -0.707107 0.707107
0.000000 0.707107 -0.707107
0.707107 0.707107 -0.000000
-0.707107 0.000000 0.707107
0.000000 -0.707107 -0.707107
0.000000 0.707107 0.707107
-0.000000 -0.707107 -0.707107
0.000000 -0.707107 0.707107
-0.000000 0.707107 -0.707107
0.000000 0.707107 -0.707107
0.000000 0.707107 -0.707107
-0.000000 -0.707107 0.707107
0.707107 -0.707107 0.000000
-0.707107 0.707107 -0.000000
0.000000 0.707107 -0.707107
-0.000000 -0.707107 0.707107
-0.707107 0.000000 0.707107
0.707107 -0.000000 -0.707107
0.707107 -0.707107 -0.000000
-0.707107 0.707107 -0.000000
0.000000 0.707107 0.707107
-0.000000 -0.707107 -0.707107
-0.707107 -0.707107 -0.000000
0.707107 -0.000000 -0.707107
-0.000000 0.707107 0.707107
0.707107 0.000000 0.707107
-0.000000 0.707107 -0.707107
-0.707107 -0.707107 -0.000000
-0.707107 -0.000000 0.707107
0.707107 -0.707107 -0.000000
0.000000 0.707107 -0.707107
0.000000 -0.707107 0.707107
-0.000000 0.707107 -0.707107
-0.000000 -0.707107 -0.707107
-0.707107 0.707107 0.000000
0.707107 0.000000 0.707107
-0.707107 -0.707107 0.000000
0.707107 -0.000000 0.707107
0.707107 -0.000000 0.707107
0.000000 0.707107 -0.707107
-0.000000 0.707107 -0.707107
0.000000 -0.707107 0.707107
0.707107 0.000000 0.707107
-0.707107 -0.000000 -0.707107
0.000000 -0.707107 0.707107
-0.000000 0.707107 -0.707107
-0.707107 -0.000000 -0.707107
0.707107 -0.000000 0.707107
0.000000 -0.707107 -0.707107
-0.000000 0.707107 0.707107
0.707107 -0.000000 0.707107
-0.707107 0.000000 -0.707107
-0.000000 0.707107 0.707107
0.000000 -0.707107 -0.707107
0.000000 0.707107 -0.707107
0.000000 -0.707107 0.707107
-0.707107 -0.707107 0.000000
0.707107 0.707107 -0.000000
-0.707107 0.000000 0.707107
0.707107 -0.000000 -0.707107
-0.000000 -0.707107 0.707107
0.707107 0.707107 0.000000
-0.707107 0.000000 -0.707107
-0.707107 -0.707107 0.000000
0.707107 0.707107 -0.000000
-0.000000 0.707107 -0.707107
0.707107 -0.000000 0.707107
-0.707107 -0.707107 0.000000
-0.707107 0.000000 0.707107
0.707107 0.000000 -0.707107
0.000000 -0.707107 -0.707107
0.707107 0.000000 0.707107
-0.707107 0.707107 -0.000000
0.000000 0.707107 -0.707107
0.000000 -0.707107 0.707107
0.707107 -0.707107 0.000000
-0.707107 0.707107 -0.000000
-0.707107 0.000000 0.707107
0.707107 -0.000000 -0.707107
0.000000 -0.707107 -0.707107
0.000000 0.707107 0.707107
0.707107 -0.000000 0.707107
-0.707107 0.707107 -0.000000
-0.000000 -0.707107 -0.707107
0.000000 0.707107 0.707107
-0.000000 -0.707107 -0.707107
0.707107 0.707107 0.000000
-0.707107 0.000000 -0.707107
0.000000 -0.707107 0.707107
-0.707107 0.000000 -0.707107
0.707107 -0.000000 0.707107
-0.707107 -0.707107 -0.000000
0.707107 0.000000 0.707107
-0.000000 0.707107 -0.707107
0.707107 -0.000000 -0.707107
-0.707107 0.000000 0.707107
-0.000000 -0.707107 -0.707107
-0.000000 0.707107 0.707107
0.707107 -0.707107 0.000000
-0.000000 0.707107 -0.707107
-0.707107 0.000000 0.707107
0.707107 0.000000 0.707107
-0.707107 -0.707107 0.000000
0.000000 0.707107 -0.707107
-0.707107 -0.707107 0.000000
0.707107 0.707107 -0.000000
0.707107 0.707107 -0.000000
0.000000 -0.707107 0.707107
0.707107 0.707107 -0.000000
-0.707107 0.000000 -0.707107
0.707107 0.707107 0.000000
-0.707107 -0.707107 -0.000000
0.707107 0.707107 -0.000000
-0.707107 -0.707107 0.000000
0.000000 0.707107 0.707107
-0.000000 -0.707107 -0.707107
0.000000 0.000000 1.414214
-0.000000 -0.000000 -1.414214
-0.000000 0.707107 -0.707107
-0.000000 -0.707107 0.707107
0.000000 -0.707107 -0.707107
-0.000000 0.707107 0.707107
-0.707107 0.000000 -0.707107
0.707107 -0.000000 0.707107
-0.707107 -0.707107 0.000000
0.707107 0.707107 -0.000000
-0.707107 0.000000 -0.707107
0.707107 -0.000000 0.707107
-0.707107 0.000000 -0.707107
0.707107 -0.000000 0.707107
0.000000 -0.707107 0.707107
0.000000 0.707107 -0.707107
-0.000000 0.707107 0.707107
0.000000 -0.707107 -0.707107
0.000000 -0.707107 0.707107
-0.000000 0.707107 -0.707107
0.707107 -0.707107 0.000000
-0.707107 0.707107 -0.000000
0.000000 -0.707107 -0.707107
0.707107 0.707107 -0.000000
-0.707107 0.000000 0.707107
0.000000 -0.707107 -0.707107
-0.707107 0.707107 -0.000000
0.707107 0.000000 0.707107
-0.707107 0.000000 -0.707107
0.707107 -0.000000 0.707107
-0.707107 -0.707107 -0.000000
0.707107 0.707107 0.000000
0.707107 -0.707107 -0.000000
-0.707107 -0.000000 -0.707107
-0.000000 0.707107 0.707107
-0.707107 -0.000000 0.707107
0.707107 -0.000000 -0.707107
0.000000 0.707107 0.707107
-0.000000 -0.707107 -0.707107
-0.000000 -0.707107 -0.707107
0.000000 0.707107 0.707107
-0.707107 0.000000 0.707107
0.707107 0.000000 -0.707107
0.707107 -0.000000 0.707107
-0.707107 0.000000 -0.707107
-0.000000 0.707107 -0.707107
-0.707107 -0.707107 0.000000
0.707107 0.000000 0.707107
-0.707107 0.000000 -0.707107
-0.000000 0.707107 0.707107
-0.000000 0.707107 0.707107
0.707107 -0.707107 0.000000
0.707107 -0.707107 0.000000
-0.000000 0.707107 0.707107
0.000000 -0.707107 -0.707107
0.707107 -0.707107 -0.000000
-0.707107 -0.000000 -0.707107
-0.000000 0.707107 0.707107
0.707107 0.000000 0.707107
-0.707107 -0.000000 -0.707107
-0.707107 -0.000000 0.707107
0.707107 0.000000 -0.707107
0.000000 0.707107 0.707107
-0.000000 -0.707107 -0.707107
0.707107 -0.000000 0.707107
-0.707107 0.000000 -0.707107
0.000000 -0.707107 -0.707107
0.707107 0.707107 -0.000000
-0.707107 -0.000000 0.707107
0.707107 -0.707107 0.000000
-0.707107 0.707107 -0.000000
-0.707107 -0.000000 -0.707107
0.707107 -0.000000 0.707107
-0.707107 -0.707107 -0.000000
0.707107 0.707107 0.000000
0.000000 -0.707107 -0.707107
-0.000000 0.707107 0.707107
-0.707107 -0.707107 -0.000000
0.707107 0.707107 0.000000
-0.707107 -0.707107 -0.000000
-0.000000 0.707107 0.707107
0.000000 -0.707107 -0.707107
-0.707107 -0.000000 -0.707107
0.707107 0.000000 0.707107
-0.707107 0.000000 0.707107
0.707107 -0.000000 -0.707107
0.707107 -0.707107 0.000000
-0.707107 0.707107 -0.000000
-0.707107 0.000000 0.707107
0.707107 -0.000000 -0.707107
-0.707107 0.000000 -0.707107
0.000000 -0.707107 0.707107
0.707107 0.707107 -0.000000
0.707107 -0.707107 -0.000000
-0.707107 0.707107 0.000000
0.000000 -0.707107 -0.707107
-0.000000 0.707107 0.707107
0.000000 0.707107 -0.707107
-0.000000 -0.707107 0.707107
-0.707107 -0.707107 -0.000000
0.707107 0.707107 0.000000
-0.000000 -0.707107 0.707107
-0.000000 -0.707107 -0.707107
0.000000 1.414214 0.000000
0.000000 -0.707107 -0.707107
0.000000 0.707107 0.707107
0.707107 -0.000000 0.707107
-0.707107 0.000000 -0.707107
-0.707107 0.000000 0.707107
0.707107 -0.000000 -0.707107
-0.707107 0.000000 0.707107
0.707107 -0.000000 -0.707107
-0.707107 0.707107 0.000000
0.707107 -0.707107 -0.000000
-0.707107 -0.000000 0.707107
0.000000 0.707107 -0.707107
0.707107 -0.707107 0.000000
0.000000 -0.707107 -0.707107
-0.000000 0.707107 0.707107
-0.707107 -0.707107 0.000000
0.707107 0.707107 -0.000000
-0.000000 0.707107 -0.707107
0.000000 -0.707107 -0.707107
-0.000000 0.707107 0.707107
0.707107 0.707107 0.000000
-0.707107 -0.707107 -0.000000
0.707107 -0.000000 0.707107
-0.707107 0.000000 -0.707107
0.000000 -0.707107 -0.707107
-0.000000 0.707107 0.707107
-0.707107 0.707107 0.000000
0.707107 -0.707107 -0.000000
-0.707107 -0.707107 -0.000000
0.000000 0.707107 -0.707107
0.707107 0.000000 0.707107
0.707107 -0.707107 0.000000
-0.707107 0.707107 -0.000000
0.707107 0.000000 0.707107
-0.707107 0.000000 -0.707107
0.000000 -0.707107 -0.707107
-0.000000 0.707107 0.707107
0.000000 0.000000 -1.414214
0.707107 0.000000 0.707107
-0.707107 0.000000 0.707107
-0.707107 -0.000000 -0.707107
0.707107 0.707107 -0.000000
-0.707107 -0.707107 -0.000000
0.707107 0.000000 0.707107
-0.707107 -0.707107 0.000000
0.707107 0.707107 -0.000000
0.707107 -0.000000 0.707107
-0.707107 0.000000 -0.707107
-0.707107 0.707107 0.000000
0.707107 -0.707107 -0.000000
-0.707107 0.000000 0.707107
0.707107 -0.000000 -0.707107
-0.000000 0.707107 0.707107
0.000000 -0.707107 -0.707107
0.000000 0.707107 -0.707107
-0.000000 -0.707107 0.707107
0.707107 0.000000 -0.707107
-0.707107 -0.000000 0.707107
0.707107 -0.707107 0.000000
0.707107 -0.707107 0.000000
-0.707107 0.707107 -0.000000
-0.707107 -0.000000 0.707107
0.707107 0.000000 -0.707107
0.707107 0.000000 0.707107
-0.707107 -0.000000 -0.707107
0.707107 0.000000 -0.707107
-0.707107 -0.000000 0.707107
0.707107 0.707107 0.000000
-0.707107 -0.707107 -0.000000
0.707107 -0.000000 0.707107
-0.707107 0.000000 -0.707107
0.707107 0.000000 0.707107
-0.707107 -0.000000 -0.707107
-0.000000 -0.707107 -0.707107
0.000000 0.707107 0.707107
1.414214 0.000000 -0.000000
-0.707107 0.707107 -0.000000
-0.707107 -0.707107 0.000000
0.707107 0.000000 0.707107
-0.707107 -0.000000 0.707107
0.707107 0.000000 -0.707107
0.000000 0.707107 -0.707107
-0.000000 -0.707107 0.707107
-0.707107 0.000000 0.707107
0.707107 0.707107 -0.000000
-0.000000 -0.707107 -0.707107
-0.707107 0.000000 -0.707107
0.707107 -0.000000 0.707107
-0.000000 0.707107 -0.707107
0.000000 -0.707107 0.707107
-0.707107 0.000000 -0.707107
0.707107 -0.000000 0.707107
-0.000000 -0.707107 -0.707107
-0.707107 0.707107 0.000000
0.707107 0.000000 0.707107
-0.707107 0.707107 0.000000
-0.000000 -0.707107 -0.707107
0.707107 0.000000 0.707107
-0.707107 0.000000 0.707107
0.707107 -0.000000 -0.707107
-0.707107 -0.000000 -0.707107
-0.000000 -0.707107 -0.707107
0.000000 0.707107 0.707107
0.707107 0.000000 0.707107
-0.000000 -0.707107 -0.707107
0.000000 0.707107 0.707107
0.707107 0.000000 0.707107
-0.707107 -0.000000 -0.707107
-0.000000 0.707107 0.707107
-0.000000 -0.707107 -0.707107
0.707107 0.707107 -0.000000
-0.707107 -0.000000 0.707107
-0.000000 -0.707107 -0.707107
0.707107 0.000000 -0.707107
-0.707107 -0.000000 0.707107
0.000000 -0.707107 0.707107
0.000000 0.707107 -0.707107
0.707107 0.707107 0.000000
-0.707107 -0.707107 -0.000000
0.000000 0.707107 0.707107
0.000000 -0.707107 -0.707107
0.000000 0.707107 -0.707107
-0.000000 -0.707107 0.707107
0.707107 0.000000 -0.707107
-0.707107 0.000000 0.707107
0.707107 0.000000 0.707107
-0.707107 -0.000000 -0.707107
-0.707107 -1.414214 0.707107
-0.000000 0.707107 -0.707107
0.707107 0.707107 0.000000
0.000000 -0.707107 0.707107
0.000000 0.707107 -0.707107
0.707107 0.707107 0.000000
-0.707107 -0.707107 -0.000000
-0.707107 -0.707107 -0.000000
0.707107 0.000000 -0.707107
-0.707107 -0.000000 0.707107
-0.707107 -0.000000 0.707107
0.707107 -0.707107 -0.000000
-0.707107 0.707107 -0.000000
-0.000000 -0.707107 0.707107
-0.000000 0.707107 -0.707107
-0.000000 0.707107 0.707107
0.000000 -0.707107 -0.707107
0.707107 0.707107 0.000000
-0.707107 0.707107 0.000000
-0.000000 -1.414214 -0.000000
-0.707107 0.000000 0.707107
0.000000 -0.707107 0.707107
-0.000000 0.707107 -0.707107
0.707107 -0.000000 -0.707107
0.707107 0.707107 -0.000000
0.000000 -0.707107 0.707107
-0.707107 0.000000 -0.707107
0.000000 0.707107 -0.707107
-0.000000 -0.707107 0.707107
-0.707107 0.707107 -0.000000
0.000000 -0.707107 -0.707107
-0.000000 -0.707107 -0.707107
0.000000 0.707107 0.707107
0.000000 -0.707107 0.707107
0.707107 0.707107 0.000000
-0.707107 -0.000000 -0.707107
-0.707107 -0.707107 -0.000000
0.707107 0.707107 -0.000000
-0.000000 0.707107 -0.707107
0.707107 0.000000 0.707107
-0.707107 -0.707107 -0.000000
-0.000000 0.707107 -0.707107
0.000000 -0.707107 0.707107
-0.707107 -0.707107 -0.000000
0.707107 0.707107 -0.000000
-0.707107 0.707107 0.000000
0.707107 -0.707107 -0.000000
-0.707107 0.000000 -0.707107
0.707107 -0.000000 0.707107
0.707107 0.707107 0.000000
-0.707107 -0.707107 -0.000000
0.000000 0.707107 0.707107
-0.000000 -0.707107 -0.707107
-0.000000 -0.707107 -0.707107
-0.707107 0.000000 0.707107
0.707107 0.707107 -0.000000
0.707107 -0.707107 0.000000
-0.707107 0.707107 -0.000000
0.000000 0.707107 0.707107
-0.707107 -0.707107 0.000000
0.707107 0.000000 -0.707107
0.707107 0.707107 -0.000000
-0.707107 -0.707107 -0.000000
0.000000 -0.707107 -0.707107
-0.000000 0.707107 0.707107
-0.000000 0.707107 0.707107
-0.000000 -0.707107 -0.707107
-0.707107 0.000000 0.707107
0.707107 -0.000000 -0.707107
-0.707107 -0.707107 0.000000
0.707107 0.707107 -0.000000
0.000000 -0.707107 0.707107
-0.000000 0.707107 -0.707107
-0.707107 0.707107 0.000000
0.707107 -0.707107 -0.000000
0.707107 0.000000 -0.707107
-0.707107 -0.000000 0.707107
-0.707107 0.000000 0.707107
0.707107 -0.000000 -0.707107
-0.000000 -0.707107 0.707107
0.707107 0.000000 -0.707107
0.707107 0.000000 -0.707107
-0.707107 0.707107 0.000000
-0.707107 0.707107 0.000000
0.000000 -0.707107 0.707107
-0.000000 0.707107 -0.707107
0.000000 0.707107 -0.707107
-0.000000 -0.707107 0.707107
0.707107 0.000000 -0.707107
-0.707107 -0.000000 0.707107
-0.707107 -0.707107 -0.000000
0.707107 0.707107 0.000000
-0.000000 -0.707107 -0.707107
0.000000 0.707107 0.707107
0.707107 -0.000000 0.707107
-0.707107 0.000000 -0.707107
0.707107 0.000000 -0.707107
-0.707107 -0.000000 0.707107
0.707107 -0.707107 0.000000
-0.707107 0.707107 -0.000000
-0.000000 0.707107 0.707107
-0.707107 0.000000 -0.707107
0.707107 -0.707107 -0.000000
-0.707107 -0.707107 -0.000000
0.707107 -0.000000 0.707107
-0.707107 0.000000 -0.707107
0.707107 0.000000 0.707107
-0.707107 -0.000000 -0.707107
-0.000000 -0.707107 -0.707107
-0.000000 0.707107 0.707107
0.000000 -0.707107 -0.707107
-0.000000 0.707107 0.707107
-0.000000 -0.707107 0.707107
0.000000 0.707107 -0.707107
0.707107 0.000000 -0.707107
0.000000 -0.707107 0.707107
-0.707107 0.707107 0.000000
0.707107 -0.707107 0.000000
-0.000000 0.707107 0.707107
-0.707107 0.000000 -0.707107
-0.000000 -0.707107 0.707107
0.000000 0.707107 -0.707107
-0.707107 -0.707107 -0.000000
0.707107 0.707107 -0.000000
-0.707107 -0.000000 0.707107
0.707107 0.707107 -0.000000
0.000000 -0.707107 -0.707107
-0.707107 0.000000 0.707107
0.707107 -0.000000 -0.707107
-0.000000 0.707107 -0.707107
-0.000000 -0.000000 1.414214
0.000000 -0.707107 -0.707107
-0.000000 0.707107 -0.707107
-0.707107 -0.707107 0.000000
0.707107 -0.000000 0.707107
-0.707107 -0.000000 -0.707107
0.707107 -0.000000 0.707107
0.000000 -0.707107 -0.707107
-0.000000 0.707107 0.707107
-0.000000 -0.707107 0.707107
-0.000000 -0.707107 0.707107
0.000000 0.707107 -0.707107
0.000000 0.707107 -0.707107
-0.707107 -0.000000 0.707107
0.707107 0.000000 -0.707107
-0.707107 -0.000000 0.707107
0.707107 0.000000 -0.707107
0.000000 0.707107 -0.707107
-0.000000 -0.707107 0.707107
0.707107 0.000000 -0.707107
-0.707107 -0.000000 0.707107
0.707107 0.707107 0.000000
-0.707107 -0.000000 -0.707107
0.707107 -0.000000 0.707107
0.707107 0.000000 -0.707107
-0.707107 0.000000 0.707107
0.707107 0.000000 -0.707107
-0.707107 -0.000000 0.707107
0.000000 0.707107 -0.707107
-0.000000 -0.707107 0.707107
-0.707107 -0.707107 0.000000
0.707107 0.707107 -0.000000
0.707107 0.000000 -0.707107
-0.707107 -0.000000 0.707107
-0.707107 0.707107 -0.000000
0.707107 -0.707107 -0.000000
0.707107 0.707107 -0.000000
-0.707107 -0.707107 0.000000
-0.707107 -0.000000 0.707107
0.707107 0.000000 -0.707107
-0.000000 0.707107 0.707107
0.000000 -0.707107 -0.707107
0.000000 0.707107 -0.707107
-0.000000 -0.707107 0.707107
-0.707107 0.000000 0.707107
0.000000 -0.707107 -0.707107
0.707107 0.707107 -0.000000
-0.000000 0.707107 0.707107
0.000000 -0.707107 -0.707107
-0.707107 -0.000000 -0.707107
0.707107 0.000000 0.707107
-0.707107 0.000000 -0.707107
0.707107 -0.000000 0.707107
0.000000 0.707107 0.707107
-0.707107 0.000000 -0.707107
0.707107 -0.707107 0.000000
0.707107 -0.000000 -0.707107
0.000000 -0.707107 0.707107
-0.707107 0.707107 0.000000
0.707107 -0.707107 -0.000000
-0.707107 -0.000000 0.707107
0.707107 0.000000 -0.707107
-0.707107 0.000000 0.707107
0.707107 -0.000000 -0.707107
-0.707107 0.000000 0.707107
0.707107 -0.000000 -0.707107
-0.707107 0.707107 0.000000
-0.707107 0.707107 0.000000
0.707107 -0.707107 -0.000000
0.000000 -0.707107 -0.707107
-0.000000 0.707107 0.707107