# vtk DataFile Version 3.0
Configuration exported from OpenDiS
ASCII
DATASET UNSTRUCTURED_GRID
POINTS 46186 FLOAT
-29412.000000 -29412.000000 -29412.000000
29412.000000 -29412.000000 -29412.000000
-29412.000000 29412.000000 -29412.000000
-29412.000000 -29412.000000 29412.000000
29412.000000 29412.000000 -29412.000000
29412.000000 -29412.000000 29412.000000
-29412.000000 29412.000000 29412.000000
29412.000000 29412.000000 29412.000000
21002.478641 2840.766845 4605.808833
20996.610711 2851.252983 4589.454765
21002.478641 2840.766845 4605.808833
20614.839285 3143.584439 5296.265783
-12294.549308 15269.899580 -20396.594258
-11759.906438 15466.438090 -20058.489165
-12294.549308 15269.899580 -20396.594258
-12445.537021 14446.259001 -21371.222550
-12294.549308 15269.899580 -20396.594258
-12922.444591 15897.798218 -20396.594191
79.073203 9923.474641 -12992.839690
470.253479 10538.230294 -12769.264313
79.073203 9923.474641 -12992.839690
-517.033813 9923.474641 -12396.732674
79.073203 9923.474641 -12992.839690
892.779880 9232.776520 -13115.848246
-27454.999890 -25715.812924 -22217.428259
-27500.012616 -25452.582575 -21999.210635
-27454.999890 -25715.812924 -22217.428259
-26895.313590 -26844.688806 -22786.617841
-10985.483693 -20636.753621 12250.828889
-10552.773100 -21047.797061 12272.496041
-10985.483693 -20636.753621 12250.828889
-11803.461877 -20258.861032 11810.743294
18089.285560 11147.454504 -17703.036580
17363.988306 11224.042314 -18351.746024
18089.285560 11147.454504 -17703.036580
18820.595190 11073.038677 -17046.142778
902.166883 15537.381401 1488.614486
397.198266 16348.613019 1794.877487
902.166883 15537.381401 1488.614486
1436.320548 14405.647469 891.034220
-22688.877337 14293.186072 28953.982290
-22605.876355 14154.015193 28953.982290
-22688.877337 14293.186072 28953.982290
-22688.878317 14321.090374 28981.887570
-22688.877337 14293.186072 28953.982290
-22921.465175 13516.971675 27945.182013
-2461.654491 -12646.285404 8536.905518
-1938.001725 -12646.285404 7981.643392
-2461.654491 -12646.285404 8536.905518
-2959.792910 -12646.285404 9042.399497
-23916.233010 -22002.972459 23844.406497
-23723.686032 -21582.595739 23231.482799
-23916.233010 -22002.972459 23844.406497
-23555.927353 -21992.381298 24194.120994
-23916.233010 -22002.972459 23844.406497
-24849.056932 -22935.796381 23844.406497
-23608.614463 620.817699 -17295.510468
-23608.615288 1387.826565 -18062.515225
-23608.614463 620.817699 -17295.510468
-23608.614747 -311.287479 -16363.705153
-23417.674803 6957.823908 9951.470678
-23263.215201 6741.879127 10321.875062
-23417.674803 6957.823908 9951.470678
-23417.683473 6957.832493 9951.470678
-23417.674803 6957.823908 9951.470678
-24458.542467 5910.369035 9951.470678
4857.091696 -14259.060854 26050.085858
5278.470862 -14874.943341 25855.582536
4857.091696 -14259.060854 26050.085858
5647.485184 -14911.706842 24607.046382
4857.091696 -14259.060854 26050.085858
3553.014473 -15563.148471 26050.077898
20235.061713 -4496.012783 -26922.270656
20923.488314 -4842.964134 -25887.689838
20235.061713 -4496.012783 -26922.270656
19685.622386 -3927.756668 -28039.168964
-1668.775875 -12213.431905 17510.268531
-1449.229997 -12148.009306 17356.145252
-1668.775875 -12213.431905 17510.268531
-1642.903963 -12251.699663 17542.723787
1734.538712 -7469.224660 -8636.898121
1466.917216 -8456.543396 -9356.595361
1734.538712 -7469.224660 -8636.898121
2101.402458 -6588.620762 -8123.157970
-8396.476621 -21541.712597 3933.078822
-7923.970463 -21541.712597 4405.584980
-8396.476621 -21541.712597 3933.078822
-9007.875234 -22788.712074 4568.679687
-8396.476621 -21541.712597 3933.078822
-8483.500174 -21998.191879 3389.575987
10136.233254 -22457.157902 2126.306308
9191.815669 -22966.886375 672.160250
10136.233254 -22457.157902 2126.306308
10835.802146 -22441.236337 2841.796765
7564.199472 13429.430290 -23750.786020
6724.487681 13429.430290 -24732.637139
7564.199472 13429.430290 -23750.786020
8277.228794 13429.430290 -22988.825297
-14965.731051 -5047.383772 -23133.897930
-15215.308502 -5327.361902 -23103.497251
-14965.731051 -5047.383772 -23133.897930
-14514.119095 -4497.169146 -23232.500600
-25554.871335 -22460.905497 -23418.707592
-24427.496560 -23034.340305 -23972.647559
-25554.871335 -22460.905497 -23418.707592
-26604.834835 -23007.819916 -22915.658511
-25554.871335 -22460.905497 -23418.707592
-25669.863878 -21810.303962 -22883.107019
27080.016317 -22340.453021 14934.754274
26386.632745 -23024.280718 14944.310149
27080.016317 -22340.453021 14934.754274
26453.867478 -21737.292926 14911.765531
-22232.772994 -1788.625244 -14826.454116
-21363.547578 -1788.625244 -15695.679532
-22232.772994 -1788.625244 -14826.454116
-22711.799799 -1809.721922 -14326.330633
-22232.772994 -1788.625244 -14826.454116
-21106.157850 -1623.637208 -13534.850938
-22982.573933 18553.742220 -6853.832186
-22895.352895 19400.283726 -7613.152654
-22982.573933 18553.742220 -6853.832186
-23228.910234 17641.603446 -6188.029713
20097.766411 -10474.241765 -14613.920545
20446.179341 -9438.014483 -15301.734897
20097.766411 -10474.241765 -14613.920545
20106.118258 -10838.973353 -14240.837110
20389.745209 -20507.349651 11102.181317
19288.018946 -21376.718554 11334.538677
20389.745209 -20507.349651 11102.181317
21381.673955 -19851.045033 10766.557189
8020.922727 13602.217337 -26868.275082
8957.050277 13506.367133 -27900.252837
8020.922727 13602.217337 -26868.275082
7245.103476 14059.569231 -25635.103938
28816.595044 21698.589594 25562.452679
27717.900921 22238.329833 25003.498794
28816.595044 21698.589594 25562.452679
29273.969034 20769.981521 26948.701942
28816.595044 21698.589594 25562.452679
29216.529502 22341.901229 24519.206587
-9817.717762 27322.418785 -27282.699048
-10047.137843 27644.361580 -27375.221762
-9817.717762 27322.418785 -27282.699048
-8962.677480 26018.443890 -26833.756946
8957.896969 -13748.157177 -7825.684661
8906.954306 -14326.100714 -7298.683787
8957.896969 -13748.157177 -7825.684661
7641.043274 -13748.157177 -6503.375791
8957.896969 -13748.157177 -7825.684661
9290.949038 -12711.784294 -8529.005476
8957.896969 -13748.157177 -7825.684661
10208.948279 -13747.987262 -9089.049005
-15467.501196 -24098.451610 4307.113396
-15143.580406 -23573.050156 5156.435640
-15467.501196 -24098.451610 4307.113396
-16221.379742 -24675.623533 2976.062928
11877.124167 -6381.186921 -17603.128162
11685.469726 -5763.405525 -17177.001207
11877.124167 -6381.186921 -17603.128162
11899.795710 -7377.351034 -18576.620732
-1761.584062 -28728.950011 22343.763928
-1747.359833 -29412.000005 21674.938163
-1747.359833 29411.999983 21674.938163
-1744.503176 29274.822779 21540.617604
-1761.584062 -28728.950011 22343.763928
-1919.952231 -27749.734824 23164.655876
6724.479540 -12328.613907 26107.952212
6724.479540 -12329.954614 26111.571379
6724.479540 -12328.613907 26107.952212
6807.738145 -13332.615423 25187.209302
6724.479540 -12328.613907 26107.952212
7261.637251 -12728.392034 25970.572629
8162.208643 -9713.461178 -1947.514423
7794.168441 -9212.181970 -1814.275417
8162.208643 -9713.461178 -1947.514423
8725.938961 -10161.391904 -1831.714831
-14710.842239 10054.830494 28330.209191
-14810.196259 9612.306942 28673.378723
-14710.842239 10054.830494 28330.209191
-14517.119242 10693.549914 27885.212768
-17076.970545 -22111.358626 -11859.110562
-16395.981760 -22111.358626 -12540.087444
-17076.970545 -22111.358626 -11859.110562
-18184.579953 -22111.379968 -10735.295408
-27278.755960 24344.649560 -14025.098919
-28712.302900 24113.626562 -12822.567648
-27278.755960 24344.649560 -14025.098919
-26399.366742 24125.719549 -15123.421844
3381.052366 -21450.941043 23328.523015
4117.395342 -21813.354908 24427.279855
3381.052366 -21450.941043 23328.523015
3163.228152 -21390.129340 23049.887099
-8159.579815 -10622.608369 16669.867237
-8875.214033 -9952.175159 16624.666229
-8159.579815 -10622.608369 16669.867237
-7467.301090 -11497.153336 16487.600995
27789.762439 -17821.869950 26785.960746
28324.856951 -18055.473384 26482.079228
27789.762439 -17821.869950 26785.960746
28259.919110 -18528.089044 27022.023171
27789.762439 -17821.869950 26785.960746
28242.757404 -17113.628462 26535.744325
4947.567467 -16403.092154 24221.128272
5059.866237 -16403.092154 24108.829502
4947.567467 -16403.092154 24221.128272
4947.567467 -17239.595760 25057.631878
9741.402080 -23119.743156 -28610.267864
9200.472893 -23158.817320 -28108.412841
9741.402080 -23119.743156 -28610.267864
10328.101403 -23060.644442 -29137.868472
-4419.373744 -17844.332996 -23794.689691
-3593.889670 -18669.909067 -23794.689691
-4419.373744 -17844.332996 -23794.689691
-5179.399215 -17084.307508 -23794.689691
432.703630 -23284.091883 -23149.930263
-243.641203 -23392.520826 -22582.014373
432.703630 -23284.091883 -23149.930263
1048.924110 -23312.630832 -23794.689691
-24332.493374 -11499.301423 5600.694822
-23681.853352 -11858.596985 6610.630406
-24332.493374 -11499.301423 5600.694822
-25072.746906 -11293.048662 4654.188530
24688.961666 -18649.494390 17923.690631
25402.564034 -17908.461222 19378.326167
24688.961666 -18649.494390 17923.690631
24338.205679 -19456.487064 16765.941961
-13116.328809 27800.174417 -17340.631524
-13861.546058 27757.130832 -16638.457860
-13116.328809 27800.174417 -17340.631524
-12365.830858 27705.516758 -18185.787134
-6519.688831 -12365.689562 -23647.398754
-6519.688831 -11971.389445 -24045.230561
-6519.688831 -12365.689562 -23647.398754
-6519.688831 -13072.257679 -22933.205122
16775.213129 -21527.357406 -9862.760032
17263.912890 -22277.039548 -9601.777651
16775.213129 -21527.357406 -9862.760032
16423.288856 -20808.468798 -10229.724368
-11481.317778 -280.897200 20571.198434
-12069.259028 618.482711 20259.759772
-11481.317778 -280.897200 20571.198434
-11065.051160 -1112.112184 20986.146798
-15463.989960 -17837.257966 -16030.793076
-15795.419944 -18174.970221 -16030.792659
-15463.989960 -17837.257966 -16030.793076
-14566.783459 -16939.817393 -16030.793092
-77.997266 28491.747372 10866.538392
716.682129 28620.777316 11790.247731
[...]
CELL_DATA 23090
VECTORS Burgers FLOAT
0.000000 0.000000 0.000000
0.707107 0.707107 0.000000
-0.707107 -0.707107 0.000000
0.000000 0.707107 -0.707107
0.707107 0.000000 0.707107
-0.707107 -0.707107 0.000000
0.000000 -0.707107 -0.707107
0.707107 -0.000000 0.707107
-0.707107 0.707107 0.000000
0.707107 0.000000 0.707107
-0.707107 -0.000000 -0.707107
-0.000000 0.707107 0.707107
0.000000 -0.707107 -0.707107
0.707107 -0.707107 0.000000
-0.707107 0.707107 -0.000000
0.000000 -0.707107 -0.707107
-0.000000 0.707107 0.707107
-0.707107 -0.707107 0.000000
0.707107 0.000000 -0.707107
0.000000 0.707107 0.707107
-0.707107 0.000000 -0.707107
0.707107 0.000000 0.707107
-0.707107 0.000000 0.707107
0.707107 0.707107 0.000000
-0.000000 -0.707107 -0.707107
-0.000000 0.707107 0.707107
0.000000 -0.707107 -0.707107
-0.707107 -0.000000 -0.707107
1.414214 -0.707107 0.707107
-0.707107 0.707107 0.000000
0.707107 -0.000000 0.707107
0.000000 -0.707107 -0.707107
-0.707107 0.707107 0.000000
0.000000 0.707107 -0.707107
-0.000000 -0.707107 0.707107
0.000000 -0.707107 -0.707107
-0.000000 0.707107 0.707107
-0.707107 -0.000000 0.707107
0.707107 0.000000 -0.707107
0.707107 -0.000000 -0.707107
0.000000 -0.707107 0.707107
-0.707107 0.707107 -0.000000
-0.707107 0.707107 0.000000
0.707107 -0.707107 -0.000000
0.707107 -0.000000 -0.707107
-0.707107 0.000000 0.707107
-0.000000 -0.707107 0.707107
0.000000 0.707107 -0.707107
-0.707107 0.707107 -0.000000
-0.000000 -0.707107 -0.707107
0.707107 -0.000000 0.707107
0.000000 0.707107 0.707107
-0.000000 -0.707107 -0.707107
-0.707107 -0.000000 -0.707107
0.707107 -0.707107 0.000000
-0.000000 0.707107 0.707107
-0.000000 0.707107 -0.707107
0.000000 -0.707107 0.707107
0.707107 -0.000000 0.707107
-0.707107 0.000000 -0.707107
0.707107 0.707107 0.000000
-0.707107 -0.707107 -0.000000
-0.707107 -0.707107 0.000000
0.707107 0.707107 -0.000000
0.707107 0.000000 0.707107
-0.707107 -0.707107 -0.000000
0.000000 0.707107 -0.707107
0.707107 -0.707107 0.000000
-0.707107 0.707107 -0.000000
0.000000 0.707107 -0.707107
0.707107 -0.000000 0.707107
-0.000000 -0.707107 0.707107
-0.707107 0.000000 -0.707107
0.707107 -0.707107 0.000000
-0.707107 0.707107 -0.000000
0.000000 -0.707107 -0.707107
-0.000000 0.707107 0.707107
0.000000 0.707107 0.707107
0.000000 0.707107 0.707107
-0.000000 -0.707107 -0.707107
-0.000000 -0.000000 -1.414214
0.707107 0.000000 0.707107
-0.707107 -0.000000 0.707107
0.000000 -0.707107 -0.707107
-0.000000 0.707107 0.707107
0.000000 0.707107 -0.707107
-0.000000 -0.707107 0.707107
-0.707107 0.000000 -0.707107
0.707107 -0.000000 0.707107
0.707107 0.707107 0.000000
-0.707107 -0.707107 -0.000000
0.000000 -0.707107 0.707107
-0.000000 0.707107 -0.707107
0.000000 -0.707107 -0.707107
-0.000000 0.707107 0.707107
-0.707107 0.707107 0.000000
0.707107 -0.000000 -0.707107
-0.000000 -0.707107 0.707107
-0.000000 0.707107 0.707107
-0.000000 -0.707107 -0.707107
0.707107 0.707107 0.000000
-0.707107 -0.707107 -0.000000
0.707107 0.707107 0.000000
-0.707107 -0.707107 -0.000000
0.707107 -0.000000 -0.707107
-0.707107 0.000000 0.707107
0.000000 -0.707107 0.707107
-0.000000 0.707107 -0.707107
-0.000000 0.707107 0.707107
0.000000 -0.707107 -0.707107
0.707107 -0.000000 -0.707107
-0.707107 0.000000 0.707107
-0.000000 0.707107 0.707107
-0.000000 -0.707107 -0.707107
0.000000 0.707107 -0.707107
-0.000000 -0.707107 0.707107
0.000000 0.707107 -0.707107
-0.000000 -0.707107 0.707107
-0.707107 0.707107 -0.000000
0.707107 -0.707107 0.000000
-0.707107 0.000000 -0.707107
0.707107 -0.000000 0.707107
0.707107 0.707107 -0.000000
-0.707107 -0.000000 0.707107
0.000000 -0.707107 -0.707107
-0.707107 0.000000 0.707107
0.000000 -0.707107 -0.707107
0.707107 0.707107 0.000000
-0.000000 -0.707107 -0.707107
-0.000000 0.707107 0.707107
0.000000 -0.707107 -0.707107
-0.000000 0.707107 0.707107
0.707107 -0.707107 -0.000000
-0.707107 0.707107 0.000000
0.000000 -0.707107 -0.707107
-0.707107 0.707107 -0.000000
0.707107 0.000000 0.707107
0.000000 -0.707107 -0.707107
0.000000 0.707107 0.707107
0.707107 0.707107 -0.000000
-0.707107 -0.707107 0.000000
-0.707107 -0.707107 0.000000
0.707107 0.707107 -0.000000
0.000000 0.707107 0.707107
-0.000000 -0.707107 -0.707107
0.707107 0.707107 0.000000
-0.707107 -0.707107 -0.000000
0.707107 0.707107 -0.000000
-0.707107 -0.707107 0.000000
-0.707107 0.000000 -0.707107
0.707107 -0.000000 0.707107
0.000000 -0.707107 0.707107
-0.000000 0.707107 -0.707107
0.707107 0.707107 -0.000000
-0.707107 -0.000000 -0.707107
-0.707107 -0.707107 -0.000000
0.707107 0.000000 0.707107
0.000000 -0.707107 0.707107
-0.000000 0.707107 -0.707107
0.707107 -0.000000 0.707107
-0.707107 0.000000 -0.707107
-0.707107 -0.707107 -0.000000
0.707107 -0.000000 -0.707107
-0.000000 0.707107 0.707107
-0.707107 -0.000000 0.707107
0.707107 0.707107 -0.000000
0.000000 -0.707107 -0.707107
-0.707107 -0.707107 0.000000
0.707107 0.707107 -0.000000
0.707107 0.000000 -0.707107
-0.000000 -0.707107 0.707107
-0.707107 0.707107 -0.000000
-0.707107 -0.000000 0.707107
-0.000000 -0.707107 -0.707107
0.707107 0.707107 -0.000000
-0.707107 -0.707107 0.000000
-0.000000 0.707107 -0.707107
0.707107 -0.000000 0.707107
0.707107 0.000000 -0.707107
-0.707107 -0.000000 0.707107
0.000000 -0.707107 -0.707107
0.707107 0.707107 0.000000
-0.707107 -0.000000 0.707107
-0.707107 0.707107 0.000000
0.707107 -0.707107 -0.000000
-0.707107 -0.000000 -0.707107
0.707107 -0.000000 0.707107
-0.000000 -0.707107 -0.707107
0.000000 0.707107 0.707107
0.707107 0.000000 -0.707107
0.000000 0.707107 0.707107
-0.707107 -0.707107 -0.000000
-0.000000 0.707107 0.707107
0.000000 -0.707107 -0.707107
0.707107 0.000000 -0.707107
0.000000 0.707107 -0.707107
-0.000000 -0.707107 0.707107
-0.707107 -0.000000 0.707107
-0.707107 -0.707107 0.000000
0.707107 0.000000 -0.707107
0.000000 0.707107 0.707107
0.707107 0.000000 0.707107
-0.707107 -0.000000 -0.707107
0.707107 0.000000 0.707107
-0.707107 -0.707107 0.000000
-0.000000 0.707107 -0.707107
0.000000 -0.707107 -0.707107
0.000000 0.707107 0.707107
0.000000 -0.707107 -0.707107
-0.000000 0.707107 0.707107
-0.707107 0.000000 0.707107
0.707107 0.000000 -0.707107
0.707107 0.000000 -0.707107
-0.707107 -0.000000 0.707107
0.707107 -0.707107 0.000000
-0.707107 0.707107 -0.000000
-0.000000 -0.707107 0.707107
0.000000 0.707107 -0.707107
-0.707107 0.000000 0.707107
0.707107 -0.000000 -0.707107
0.000000 0.707107 0.707107
0.707107 0.000000 -0.707107
-0.707107 -0.707107 0.000000
-0.707107 0.000000 0.707107
0.000000 0.707107 -0.707107
0.707107 -0.707107 0.000000
-0.707107 -0.000000 0.707107
0.707107 0.707107 -0.000000
0.000000 -0.707107 -0.707107
-0.707107 -0.000000 0.707107
0.707107 0.000000 -0.707107
0.000000 1.414214 -0.000000
-0.000000 -1.414214 0.000000
0.707107 -0.000000 0.707107
-0.707107 0.000000 -0.707107
0.707107 -0.000000 -0.707107
-0.707107 0.000000 0.707107
-0.707107 0.000000 -0.707107
0.707107 -0.000000 0.707107
0.707107 0.000000 -0.707107
-0.707107 0.000000 0.707107
0.707107 0.000000 0.707107
-0.707107 -0.000000 -0.707107
-0.707107 -0.707107 0.000000
-0.707107 -0.707107 0.000000
0.707107 0.707107 -0.000000
0.707107 0.000000 0.707107
-0.707107 -0.000000 -0.707107
-0.707107 0.000000 -0.707107
0.707107 -0.000000 0.707107
0.707107 0.707107 -0.000000
-0.707107 -0.707107 0.000000
-0.707107 0.707107 0.000000
0.707107 -0.707107 -0.000000
0.707107 0.000000 -0.707107
0.000000 0.000000 1.414214
-0.707107 -0.000000 -0.707107
-0.000000 0.707107 -0.707107
-0.000000 -0.707107 0.707107
0.707107 0.707107 -0.000000
-0.707107 -0.707107 0.000000
-0.000000 0.707107 -0.707107
-0.000000 -0.707107 0.707107
0.707107 -0.000000 -0.707107
-0.707107 0.000000 0.707107
0.707107 0.000000 -0.707107
-0.707107 -0.000000 0.707107
-0.707107 0.000000 -0.707107
0.707107 -0.000000 0.707107
-0.000000 0.707107 0.707107
-0.000000 -0.707107 -0.707107
-0.707107 -0.000000 0.707107
0.707107 0.000000 0.707107
0.707107 0.000000 -0.707107
-0.707107 -0.000000 -0.707107
0.707107 -0.707107 -0.000000
-0.707107 0.707107 0.000000
-0.707107 0.000000 -0.707107
0.707107 -0.000000 0.707107
0.707107 -0.000000 0.707107
-0.707107 0.000000 -0.707107
0.707107 -0.000000 0.707107
-0.707107 0.000000 -0.707107
0.707107 -0.000000 0.707107
-0.707107 -0.000000 0.707107
0.707107 0.000000 -0.707107
0.000000 0.707107 -0.707107
-0.000000 -0.707107 -0.707107
-0.000000 -0.000000 1.414214
-0.707107 -0.000000 0.707107
0.707107 -0.000000 -0.707107
0.000000 -0.707107 -0.707107
-0.000000 0.707107 0.707107
0.000000 0.707107 0.707107
-0.000000 -0.707107 -0.707107
-0.707107 0.707107 0.000000
0.707107 -0.707107 -0.000000
-0.707107 0.000000 0.707107
0.707107 0.000000 -0.707107
0.707107 0.000000 0.707107
-0.707107 0.707107 -0.000000
0.000000 -0.707107 -0.707107
-0.000000 0.707107 -0.707107
-0.707107 -0.707107 0.000000
0.707107 -0.000000 0.707107
0.707107 0.000000 -0.707107
-0.707107 -0.000000 0.707107
-0.707107 -0.000000 0.707107
-0.000000 0.707107 0.707107
0.000000 -0.707107 -0.707107
0.000000 -0.707107 0.707107
-0.000000 0.707107 -0.707107
0.000000 -0.707107 0.707107
0.707107 -0.000000 -0.707107
-0.707107 0.707107 0.000000
0.707107 0.000000 -0.707107
-0.707107 -0.000000 0.707107
0.000000 0.707107 -0.707107
-0.000000 0.707107 0.707107
-0.000000 -1.414214 0.000000
0.000000 -0.707107 -0.707107
-0.707107 -0.000000 0.707107
0.707107 0.707107 -0.000000
-0.707107 0.000000 0.707107
0.707107 -0.000000 -0.707107
-0.707107 -0.000000 -0.707107
0.707107 -0.000000 0.707107
-0.000000 0.707107 -0.707107
0.000000 -0.707107 0.707107
0.707107 -0.000000 -0.707107
-0.707107 0.000000 0.707107
0.707107 0.000000 0.707107
-0.707107 -0.000000 -0.707107
-0.707107 -0.707107 0.000000
0.707107 0.707107 -0.000000
-0.000000 0.707107 0.707107
0.000000 -0.707107 -0.707107
-0.000000 0.707107 -0.707107
-0.707107 -0.707107 -0.000000
0.707107 0.000000 0.707107
-0.707107 0.000000 0.707107
0.707107 -0.000000 -0.707107
0.000000 -0.707107 -0.707107
-0.000000 0.707107 0.707107
0.707107 0.000000 -0.707107
-0.707107 -0.000000 0.707107
-0.707107 0.000000 -0.707107
0.000000 -0.707107 0.707107
0.707107 0.707107 -0.000000
-0.707107 0.000000 -0.707107
0.707107 -0.707107 -0.000000
0.000000 0.707107 0.707107
0.000000 -0.707107 -0.707107
-0.000000 0.707107 0.707107
0.000000 0.707107 -0.707107
-0.000000 -0.707107 0.707107
-0.707107 -0.707107 -0.000000
0.707107 0.707107 0.000000
-0.000000 -0.707107 -0.707107
0.000000 1.414214 0.000000
-0.000000 -0.707107 0.707107
0.000000 -0.707107 0.707107
-0.000000 0.707107 -0.707107
0.707107 0.000000 -0.707107
-0.707107 -0.000000 0.707107
0.707107 0.000000 -0.707107
-0.707107 -0.000000 0.707107
-0.707107 0.707107 0.000000
0.707107 -0.707107 -0.000000
-0.707107 0.000000 0.707107
0.707107 -0.000000 -0.707107
0.000000 -0.707107 -0.707107
-0.000000 0.707107 0.707107
-0.707107 -0.707107 0.000000
0.707107 0.707107 -0.000000
0.707107 -0.707107 -0.000000
-0.707107 0.707107 -0.000000
0.000000 -0.707107 -0.707107
-0.000000 0.707107 0.707107
0.707107 0.707107 0.000000
-0.707107 -0.707107 -0.000000
0.707107 -0.000000 0.707107
-0.707107 0.000000 -0.707107
0.000000 -0.707107 -0.707107
-0.000000 0.707107 0.707107
-0.707107 0.707107 0.000000
0.707107 -0.707107 -0.000000
0.707107 0.000000 -0.707107
0.000000 -0.707107 0.707107
-0.707107 0.707107 0.000000
0.707107 -0.707107 0.000000
-0.707107 0.707107 -0.000000
0.707107 0.000000 0.707107
-0.707107 0.000000 -0.707107
-0.000000 0.707107 0.707107
0.000000 -0.707107 -0.707107
-0.707107 0.000000 -0.707107
0.707107 0.000000 0.707107
0.707107 0.000000 -0.707107
-0.707107 -0.000000 0.707107
-0.707107 0.000000 -0.707107
-0.707107 0.000000 -0.707107
0.707107 -0.000000 0.707107
-0.707107 0.707107 0.000000
0.707107 -0.707107 -0.000000
0.707107 0.000000 -0.707107
-0.707107 -0.000000 0.707107
-0.707107 -0.000000 0.707107
0.707107 0.000000 0.707107
-0.707107 -0.000000 -0.707107
0.707107 -0.000000 0.707107
-0.707107 0.000000 -0.707107
0.000000 -0.707107 0.707107
-0.000000 0.707107 -0.707107
-0.000000 0.707107 -0.707107
-0.707107 0.000000 0.707107
0.707107 -0.000000 -0.707107
0.707107 -0.000000 0.707107
-0.707107 0.000000 -0.707107
-0.000000 -0.707107 0.707107
-0.000000 0.707107 -0.707107
0.707107 -0.000000 -0.707107
-0.707107 0.000000 0.707107
0.707107 0.707107 0.000000
-0.707107 -0.707107 -0.000000
0.707107 0.000000 -0.707107
-0.707107 -0.000000 0.707107
-0.000000 -0.000000 -1.414214
-0.707107 -0.000000 0.707107
-0.707107 -0.000000 0.707107
0.707107 0.000000 -0.707107
-0.707107 0.707107 0.000000
0.707107 -0.707107 -0.000000
0.707107 0.000000 0.707107
-0.707107 0.000000 -0.707107
-0.707107 -0.000000 0.707107
0.707107 0.000000 -0.707107
0.707107 0.707107 -0.000000
0.707107 0.707107 -0.000000
-0.707107 -0.707107 -0.000000
-0.000000 0.707107 0.707107
-0.707107 -0.707107 -0.000000
0.707107 -0.000000 -0.707107
-0.707107 0.000000 -0.707107
0.707107 -0.000000 0.707107
-0.000000 0.707107 -0.707107
0.000000 -0.707107 0.707107
-0.707107 -0.707107 0.000000
0.000000 0.707107 0.707107
0.707107 0.000000 -0.707107
0.000000 -0.707107 -0.707107
-0.000000 0.707107 0.707107
-0.707107 0.000000 0.707107
0.707107 -0.000000 -0.707107
0.707107 -0.707107 -0.000000
-0.000000 0.707107 -0.707107
-0.707107 -0.000000 0.707107
0.000000 -0.707107 -0.707107
-0.000000 0.707107 0.707107
-0.000000 -0.707107 -0.707107
0.000000 0.707107 0.707107
-0.707107 0.000000 -0.707107
0.707107 -0.000000 0.707107
-0.000000 0.707107 0.707107
-0.000000 -0.707107 -0.707107
0.707107 -0.000000 -0.707107
-0.707107 0.000000 0.707107
0.707107 -0.000000 0.707107
-0.707107 0.000000 -0.707107
-0.000000 0.707107 0.707107
-0.707107 -0.000000 -0.707107
0.707107 -0.707107 -0.000000
0.000000 -0.707107 0.707107
-0.000000 0.707107 -0.707107
0.707107 0.707107 -0.000000
-0.707107 -0.707107 0.000000
-0.707107 0.000000 -0.707107
0.707107 -0.000000 0.707107
0.707107 0.000000 -0.707107
-0.707107 0.000000 0.707107
0.707107 0.000000 0.707107
-0.707107 -0.000000 -0.707107
-0.707107 -0.707107 -0.000000
0.707107 0.707107 0.000000
0.000000 -0.707107 0.707107
0.000000 0.707107 -0.707107
0.000000 0.707107 0.707107
-0.000000 -0.707107 -0.707107
0.707107 0.000000 -0.707107
-0.707107 -0.000000 0.707107
-0.707107 -0.000000 0.707107
-0.000000 -0.707107 0.707107
0.707107 0.000000 -0.707107
-0.707107 0.707107 -0.000000
0.000000 0.707107 0.707107
-0.000000 -0.707107 -0.707107
-0.707107 -0.707107 0.000000
0.707107 0.707107 -0.000000
0.000000 -1.414214 0.000000
0.707107 0.707107 0.000000
-0.707107 0.707107 0.000000
-0.707107 -0.707107 0.000000
0.707107 0.707107 -0.000000
0.000000 -0.707107 -0.707107
-0.000000 0.707107 0.707107
-0.000000 0.707107 0.707107
0.000000 -0.707107 -0.707107
-0.000000 0.707107 0.707107
0.000000 -0.707107 -0.707107
-0.707107 0.000000 0.707107
0.707107 0.707107 -0.000000
-0.000000 -0.707107 -0.707107
0.000000 0.707107 0.707107
0.000000 -0.707107 0.707107
0.707107 0.707107 0.000000
-0.707107 -0.000000 -0.707107
-0.707107 -0.707107 -0.000000
0.707107 0.707107 -0.000000
-0.000000 -0.707107 0.707107
-0.000000 0.707107 -0.707107
-0.707107 -0.000000 0.707107
0.707107 0.000000 -0.707107
-0.707107 -1.414214 -0.707107
0.707107 0.707107 -0.000000
-0.000000 0.707107 0.707107
-0.000000 -0.000000 -1.414214
0.000000 0.000000 1.414214
0.000000 0.707107 0.707107
-0.000000 -0.707107 -0.707107
0.707107 0.707107 -0.000000
-0.707107 -0.707107 0.000000
-0.707107 0.707107 -0.000000
-0.000000 -0.707107 0.707107
0.707107 0.000000 -0.707107
-0.707107 0.707107 -0.000000
0.707107 -0.707107 0.000000
0.707107 -0.707107 0.000000
-0.707107 0.707107 -0.000000
0.000000 0.707107 0.707107
0.707107 0.000000 -0.707107
-0.707107 -0.707107 0.000000
0.707107 0.707107 -0.000000
-0.707107 -0.707107 0.000000
0.000000 -0.707107 -0.707107
-0.000000 0.707107 0.707107
-0.000000 0.707107 0.707107
-0.000000 -0.707107 -0.707107
-0.000000 0.707107 0.707107
0.000000 -0.707107 -0.707107
0.707107 0.000000 0.707107
-0.707107 0.000000 -0.707107
0.000000 -0.707107 0.707107
-0.000000 0.707107 -0.707107
-0.707107 0.707107 0.000000
0.707107 -0.707107 -0.000000
-0.707107 -0.000000 0.707107
0.707107 0.000000 -0.707107
0.707107 0.000000 -0.707107
-0.707107 -0.000000 0.707107
0.000000 0.707107 -0.707107
0.000000 0.707107 -0.707107
-0.000000 -0.707107 0.707107
0.000000 -0.707107 0.707107
-0.000000 0.707107 -0.707107
-0.707107 0.000000 -0.707107
0.707107 -0.000000 0.707107
0.707107 0.707107 0.000000
-0.707107 -0.707107 -0.000000
-0.707107 -0.707107 -0.000000
0.707107 0.707107 0.000000
-0.707107 0.000000 -0.707107
0.707107 -0.000000 0.707107
0.000000 0.707107 -0.707107
-0.000000 -0.707107 0.707107
-0.707107 0.000000 -0.707107
0.707107 -0.000000 0.707107
0.707107 -0.707107 0.000000
-0.707107 0.707107 -0.000000
-0.000000 0.707107 0.707107
-0.000000 0.707107 0.707107
0.707107 -0.707107 0.000000
-0.707107 0.000000 -0.707107
-0.707107 0.000000 -0.707107
-0.707107 -0.707107 -0.000000
-0.000000 -0.707107 -0.707107
0.000000 0.707107 0.707107
-0.707107 -0.707107 -0.000000
-0.000000 0.707107 0.707107
0.707107 0.000000 -0.707107
0.000000 0.707107 0.707107
0.707107 0.000000 -0.707107
-0.707107 -0.707107 0.000000
0.000000 -0.707107 -0.707107
-0.000000 0.707107 0.707107
-0.000000 -0.707107 0.707107
0.000000 0.707107 -0.707107
0.707107 0.707107 0.000000
-0.707107 -0.707107 -0.000000
-0.707107 -0.707107 -0.000000
-0.707107 0.000000 -0.707107
0.707107 -0.707107 0.000000
-0.000000 0.707107 0.707107
-0.000000 0.707107 -0.707107
-0.707107 -0.000000 0.707107
0.707107 -0.707107 0.000000
0.707107 0.707107 -0.000000
-0.707107 -0.707107 -0.000000
-0.707107 -0.707107 -0.000000
0.707107 0.707107 0.000000
-0.707107 -0.707107 -0.000000
-0.707107 0.000000 0.707107
0.707107 -0.000000 -0.707107
-0.000000 0.707107 -0.707107
-0.000000 -0.000000 1.414214
0.000000 -0.707107 -0.707107
0.707107 0.000000 0.707107
-0.707107 -0.000000 -0.707107
-0.707107 -0.000000 -0.707107
0.707107 -0.000000 0.707107
0.000000 -0.707107 -0.707107
-0.000000 0.707107 0.707107
0.707107 -0.707107 -0.000000
-0.000000 0.707107 0.707107
-0.707107 0.000000 -0.707107
-0.707107 -0.000000 0.707107
0.707107 0.000000 -0.707107
-0.707107 0.707107 0.000000
0.707107 -0.707107 -0.000000
0.000000 -0.707107 -0.707107
-0.000000 0.707107 0.707107
0.707107 0.707107 0.000000
0.707107 0.000000 0.707107
-0.707107 -0.000000 -0.707107
-0.707107 -0.707107 0.000000
0.707107 0.707107 0.000000
-0.000000 -0.707107 -0.707107
-0.000000 0.707107 0.707107
-0.707107 -0.000000 -0.707107
0.707107 0.000000 0.707107
0.707107 0.707107 -0.000000
-0.707107 -0.000000 -0.707107
0.000000 -0.707107 0.707107
0.000000 -0.707107 -0.707107
-0.000000 0.707107 0.707107
-0.707107 -0.000000 0.707107
0.707107 0.000000 -0.707107
-0.707107 -0.000000 -0.707107
0.707107 0.000000 0.707107
0.707107 0.000000 0.707107
-0.707107 -0.000000 -0.707107
0.000000 0.707107 -0.707107
-0.000000 -0.707107 0.707107
0.707107 0.707107 0.000000
-0.707107 -0.707107 -0.000000
-0.707107 -0.707107 0.000000
0.707107 0.707107 -0.000000
0.707107 -0.000000 0.707107
-0.707107 0.000000 -0.707107
0.707107 0.000000 -0.707107
-0.707107 0.000000 0.707107
0.707107 -0.000000 -0.707107
0.000000 -0.707107 0.707107
-0.000000 -0.707107 0.707107
0.707107 -0.000000 -0.707107
-0.707107 0.707107 0.000000
-1.414214 -0.000000 -0.000000
1.414214 0.000000 0.000000
-0.707107 0.000000 0.707107
0.707107 -0.000000 -0.707107
-0.707107 -0.707107 0.000000
0.707107 0.707107 -0.000000
0.000000 0.707107 -0.707107
-0.000000 -0.707107 0.707107
-0.707107 0.000000 -0.707107
0.707107 -0.000000 0.707107
0.707107 -0.000000 0.707107
-0.707107 0.000000 -0.707107
-0.707107 -0.000000 -0.707107
-0.000000 0.707107 0.707107
0.707107 -0.707107 0.000000
-0.707107 -0.000000 -0.707107
0.707107 0.000000 0.707107
-0.000000 0.707107 -0.707107
0.000000 -0.707107 0.707107
0.000000 -0.707107 -0.707107
-0.000000 0.707107 0.707107
-0.707107 0.707107 -0.000000
0.707107 -0.707107 -0.000000
0.000000 -0.707107 -0.707107
-0.707107 -0.000000 0.707107
0.707107 0.000000 0.707107
0.000000 0.707107 -0.707107
-0.707107 0.707107 -0.000000
0.707107 -0.000000 -0.707107
-0.000000 -0.707107 0.707107
0.707107 -0.707107 0.000000
-0.707107 0.707107 0.000000
-0.707107 0.000000 -0.707107
-0.707107 -0.000000 -0.707107
0.707107 0.000000 0.707107