# vtk DataFile Version 3.0
Configuration exported from OpenDiS
ASCII
DATASET UNSTRUCTURED_GRID
POINTS 44802 FLOAT
-29412.000000 -29412.000000 -29412.000000
29412.000000 -29412.000000 -29412.000000
-29412.000000 29412.000000 -29412.000000
-29412.000000 -29412.000000 29412.000000
29412.000000 29412.000000 -29412.000000
29412.000000 -29412.000000 29412.000000
-29412.000000 29412.000000 29412.000000
29412.000000 29412.000000 29412.000000
21044.231517 2882.519721 4605.808833
20996.610711 2851.252983 4589.454765
21044.231517 2882.519721 4605.808833
21540.713403 4069.458556 5296.265783
-12294.549308 15269.899580 -20396.594258
-11759.906438 15525.924964 -20117.976040
-12294.549308 15269.899580 -20396.594258
-13062.746863 15152.936308 -21281.755085
-12294.549308 15269.899580 -20396.594258
-12918.279788 15893.630249 -20396.594258
2826.238222 -9165.970433 2855.211910
2826.844702 -9981.380656 2040.408167
2826.238222 -9165.970433 2855.211910
2845.693053 -8938.311037 3102.326137
-27290.145116 -26045.662123 -22382.422683
-27315.614289 -25309.671030 -21671.900763
-27290.145116 -26045.662123 -22382.422683
-26895.313590 -26774.727259 -22716.656293
27332.503816 -26373.200104 -8729.630048
27672.807100 -26688.416049 -8729.630048
27332.503816 -26373.200104 -8729.630048
26709.131048 -25718.225318 -8729.630048
19308.111504 7081.956764 -20549.708377
18440.498919 7476.500324 -21022.777402
19308.111504 7081.956764 -20549.708377
20057.526411 6709.139339 -20173.110895
912.156189 15480.203738 1441.426129
364.852971 16380.958314 1794.877487
912.156189 15480.203738 1441.426129
1384.424150 14465.821390 899.311742
-22688.877337 14293.186072 28953.982290
-22605.876355 14154.015193 28953.982290
-22688.877337 14293.186072 28953.982290
-22688.879944 14321.088746 28981.887570
-22688.877337 14293.186072 28953.982290
-22987.391299 13582.897799 27945.182013
-2501.394338 -12646.285404 8579.027505
-1924.650394 -12646.285404 7968.382728
-2501.394338 -12646.285404 8579.027505
-2944.983390 -12646.285404 9027.702574
-24262.742905 -22002.972459 24190.916392
-23948.523033 -21493.450686 23367.174747
-24262.742905 -22002.972459 24190.916392
-24931.360893 -22509.426518 24353.080321
-23608.614463 620.769843 -17295.462612
-23608.615354 1449.680670 -18124.368999
-23608.614463 620.769843 -17295.462612
-23608.613464 -108.756710 -16565.941041
16483.162516 -15801.602020 -18578.145947
17272.847292 -16590.504426 -18578.145947
16483.162516 -15801.602020 -18578.145947
15323.540669 -14641.980472 -18578.145948
4764.520531 -14259.063144 25957.511762
5349.118091 -15526.308903 25274.864607
4764.520531 -14259.063144 25957.511762
4176.463595 -13350.879429 26277.639137
4764.520531 -14259.063144 25957.511762
3923.994552 -15070.630843 25928.553481
4764.520531 -14259.063144 25957.511762
5092.667572 -14259.062823 26285.658482
27432.462349 -9601.943206 -27141.926357
27030.695702 -8735.725483 -26677.475282
27432.462349 -9601.943206 -27141.926357
27808.835518 -10455.643872 -27619.253854
-1668.775875 -12213.431905 17510.268531
-1449.229997 -12165.284282 17338.870276
-1668.775875 -12213.431905 17510.268531
-1642.903963 -12251.699663 17542.723787
1430.764597 -7551.992362 -8415.891709
1415.419991 -8181.325558 -9029.880298
1430.764597 -7551.992362 -8415.891709
1431.314913 -7150.456696 -8014.906358
-8377.511273 -21541.712597 3952.044170
-7934.698160 -21541.712597 4394.857283
-8377.511273 -21541.712597 3952.044170
-9197.245281 -23107.042157 4697.639722
-8377.511273 -21541.712597 3952.044170
-8275.031608 -22693.400580 2902.835851
9852.013928 -22189.789621 2109.455263
9191.815669 -22966.886375 672.160250
9852.013928 -22189.789621 2109.455263
11257.248349 -22429.090888 3275.388416
7167.459937 13429.430290 -24214.682276
6101.893169 13429.430290 -25460.619198
7167.459937 13429.430290 -24214.682276
7853.726413 13429.430290 -23453.246032
-25240.712258 7862.641926 -21469.782022
-24548.589301 7979.122469 -22045.424436
-25240.712258 7862.641926 -21469.782022
-25174.334977 8462.864538 -20935.936691
-25240.712258 7862.641926 -21469.782022
-25953.070125 7843.929418 -20738.711648
-15057.103102 8307.582490 27121.747427
-14810.202123 7841.098265 26902.164182
-15057.103102 8307.582490 27121.747427
-15086.156177 8845.183837 27630.295699
27080.016317 -22050.820419 15224.386877
26386.632745 -22872.901184 15095.689683
27080.016317 -22050.820419 15224.386877
26477.687823 -21342.434754 15330.444047
-22232.772994 -1788.625244 -14826.454116
-21363.547578 -1788.625244 -15695.679532
-22232.772994 -1788.625244 -14826.454116
-22344.491259 -2177.030461 -14326.330633
-22232.772994 -1788.625244 -14826.454116
-21761.844969 -2796.649269 -15363.550117
-17016.530705 2852.060353 25399.814669
-17231.249839 3277.521127 24759.634760
-17016.530705 2852.060353 25399.814669
-17016.530705 2988.645059 25536.399375
-17016.530705 2852.060353 25399.814669
-16677.684483 2720.560219 24929.468314
-14432.092197 14178.055347 12551.222960
-13410.219020 13156.182170 12551.222960
-14432.092197 14178.055347 12551.222960
-15243.967505 14989.930655 12551.222960
20475.110391 -20438.986670 11085.179116
19362.584938 -21307.370882 11329.320357
20475.110391 -20438.986670 11085.179116
21381.673955 -19851.045033 10766.557189
7932.166409 13393.940051 -26987.796051
8633.455082 13182.771938 -27900.252837
7932.166409 13393.940051 -26987.796051
7245.103476 14059.569231 -25635.103938
28816.595044 21698.589594 25562.452679
27650.624328 22256.553297 24954.445665
28816.595044 21698.589594 25562.452679
29301.040520 21070.921967 26674.832982
28816.595044 21698.589594 25562.452679
29216.617414 22396.041663 24464.978240
-9806.724124 27295.534190 -27266.808091
-10047.137843 27644.361580 -27375.221762
-9806.724124 27295.534190 -27266.808091
-9035.016001 26018.443891 -26761.429694
11458.276518 -19793.660179 -4877.509114
12934.548146 -19329.389008 -5889.508727
11458.276518 -19793.660179 -4877.509114
9911.205281 -20445.829988 -3982.608108
-17359.141680 -23032.886486 3481.038036
-17355.899961 -21978.684624 4538.481617
-17359.141680 -23032.886486 3481.038036
-17467.733250 -23594.923547 2810.409405
-6699.075724 21158.844109 -9034.934222
-7523.896592 19571.896970 -9797.060493
-6699.075724 21158.844109 -9034.934222
-6501.926763 22061.224577 -8329.702714
-1696.430797 -28586.180945 22551.686260
-1627.234617 -29412.000005 21795.063380
-1627.234617 29411.999983 21795.063380
-1615.345033 29270.104227 21665.057196
-1696.430797 -28586.180945 22551.686260
-1905.745805 -27546.187862 23382.409264
28619.187693 25526.583998 19918.686069
29109.782020 25526.583998 20409.280002
28619.187693 25526.583998 19918.686069
27883.200666 25526.583998 19182.699653
12784.398264 -22360.258042 27930.222919
12515.568893 -22310.140106 27611.272238
12784.398264 -22360.258042 27930.222919
13674.362230 -22004.362788 28464.291643
12784.398264 -22360.258042 27930.222919
12561.226700 -22706.460503 27807.193958
12784.398264 -22360.258042 27930.222919
13674.973345 -21469.684926 27930.223001
-14729.460596 10075.282553 28291.138775
-14810.196719 9612.306697 28673.378508
-14729.460596 10075.282553 28291.138775
-14548.612653 10693.549914 27853.719357
-17079.645967 -22111.358626 -11856.435187
-16395.981760 -22111.358626 -12540.087444
-17079.645967 -22111.358626 -11856.435187
-18097.027942 -22111.379968 -10818.980817
-28232.121570 24172.000145 -13244.382723
-28712.302900 24113.626562 -12822.567648
-28232.121570 24172.000145 -13244.382723
-26815.746878 24212.092543 -14620.668714
1172.071978 -23444.298689 23112.900273
1425.771509 -24125.857786 24048.158901
1172.071978 -23444.298689 23112.900273
738.056544 -22596.795071 21831.380751
-8191.407592 -10873.601580 16387.046249
-8871.253119 -10136.280909 16444.521393
-8191.407592 -10873.601580 16387.046249
-7594.979105 -11717.853046 16139.223269
-20350.683436 -22569.038496 12534.640305
-21156.088586 -22455.302430 11615.499090
-20350.683436 -22569.038496 12534.640305
-20383.847502 -22974.135100 12972.899467
-20350.683436 -22569.038496 12534.640305
-20350.683436 -23047.240358 12913.994647
1872.125225 24280.811480 2784.078860
2200.241643 24411.627341 3239.924383
1872.125225 24280.811480 2784.078860
1015.277328 24375.247629 2023.215420
9697.680910 -23124.779065 -28571.582602
9187.015036 -23107.937865 -28044.075529
9697.680910 -23124.779065 -28571.582602
10187.874227 -23121.393481 -29058.390335
-4419.638978 -17844.067744 -23794.689691
-3618.169750 -18645.541515 -23794.689691
-4419.638978 -17844.067744 -23794.689691
-5179.399228 -17084.307495 -23794.689691
306.341594 -23419.587079 -23159.063423
-503.660932 -23670.632331 -22600.106149
306.341594 -23419.587079 -23159.063423
1048.924110 -23312.630832 -23794.689691
-16401.233315 -11759.191994 -21854.591236
-16298.805385 -12936.811339 -20779.399821
-16401.233315 -11759.191994 -21854.591236
-16277.368056 -10828.048987 -22909.599503
-28148.835033 -27279.369463 15280.018860
-27280.757672 -27843.245338 15584.220345
-28148.835033 -27279.369463 15280.018860
-29412.000005 -26782.998109 14513.225240
29411.999983 -26782.998109 14513.225240
29301.681118 -26739.647374 14446.257099
-13061.400636 27957.742921 -17237.991192
-13830.998924 27829.979321 -16596.156505
-13061.400636 27957.742921 -17237.991192
-12284.052777 27917.804982 -18055.276990
-6519.688831 -12371.594488 -23641.440939
-6519.688831 -11933.912692 -24083.042987
-6519.688831 -12371.594488 -23641.440939
-6519.688831 -13673.513680 -22328.051726
16978.094344 -21785.972783 -9807.025871
17400.345094 -22367.273076 -9647.976327
16978.094344 -21785.972783 -9807.025871
16423.288856 -20808.468798 -10229.724368
-11378.919017 -499.735999 20687.638471
-12069.259028 618.482711 20259.759772
-11378.919017 -499.735999 20687.638471
-10965.716733 -1417.776642 21192.476830
-15456.480215 -17829.606887 -16030.793086
-15802.352431 -18181.871455 -16030.792659
-15456.480215 -17829.606887 -16030.793086
-14566.783459 -16939.817393 -16030.793092
-4413.741613 -26127.449931 10735.596743
-4352.587807 -25522.146927 11402.053552
-4413.741613 -26127.449931 10735.596743
-4536.776880 -26552.775919 10187.235488
[...]
CELL_DATA 22398
VECTORS Burgers FLOAT
0.000000 0.000000 0.000000
0.707107 0.707107 0.000000
-0.707107 -0.707107 0.000000
0.000000 0.707107 -0.707107
0.707107 0.000000 0.707107
-0.707107 -0.707107 0.000000
-0.000000 0.707107 0.707107
0.000000 -0.707107 -0.707107
0.707107 0.000000 0.707107
-0.707107 -0.000000 -0.707107
-0.707107 -0.707107 -0.000000
0.707107 0.707107 0.000000
0.707107 -0.707107 0.000000
-0.707107 0.707107 -0.000000
0.000000 -0.707107 -0.707107
-0.000000 0.707107 0.707107
-0.707107 -0.707107 0.000000
0.707107 0.000000 -0.707107
0.000000 0.707107 0.707107
-0.707107 0.000000 -0.707107
0.707107 0.000000 0.707107
-0.707107 0.000000 0.707107
0.707107 0.000000 -0.707107
-0.000000 0.707107 0.707107
0.000000 -0.707107 -0.707107
0.707107 0.707107 0.000000
-0.707107 -0.707107 -0.000000
0.707107 -0.000000 0.707107
0.000000 -0.707107 -0.707107
0.000000 0.707107 -0.707107
-0.707107 0.000000 0.707107
0.000000 -0.707107 -0.707107
-0.000000 0.707107 0.707107
0.000000 -0.707107 -0.707107
-0.000000 0.707107 0.707107
-0.707107 -0.000000 0.707107
0.707107 0.000000 -0.707107
0.707107 -0.000000 -0.707107
0.000000 -0.707107 0.707107
-0.707107 0.707107 -0.000000
-0.707107 0.707107 0.000000
0.707107 -0.707107 -0.000000
0.707107 -0.000000 -0.707107
-0.707107 0.000000 0.707107
0.707107 0.707107 -0.000000
0.000000 -0.707107 -0.707107
-0.707107 -0.000000 0.707107
-0.707107 -0.000000 -0.707107
0.707107 0.000000 0.707107
0.000000 0.707107 0.707107
-0.000000 -0.707107 -0.707107
-0.707107 -0.000000 -0.707107
0.707107 -0.707107 0.000000
-0.000000 0.707107 0.707107
0.707107 0.000000 0.707107
0.000000 0.000000 -1.414214
-0.707107 -0.000000 0.707107
-0.707107 -0.707107 0.000000
0.707107 0.707107 -0.000000
0.707107 0.707107 0.000000
-0.707107 -0.707107 -0.000000
-0.707107 -0.707107 0.000000
0.707107 0.707107 -0.000000
0.707107 0.000000 0.707107
-0.707107 -0.707107 -0.000000
0.000000 0.707107 -0.707107
0.707107 -0.707107 0.000000
-0.707107 0.707107 -0.000000
-0.707107 -0.000000 0.707107
0.707107 0.000000 -0.707107
0.707107 -0.707107 0.000000
-0.707107 0.707107 -0.000000
-0.707107 -0.000000 0.707107
0.707107 0.000000 -0.707107
0.000000 0.707107 0.707107
0.000000 0.707107 0.707107
-0.000000 -0.707107 -0.707107
-0.707107 0.000000 0.707107
0.707107 -0.000000 -0.707107
-0.000000 0.707107 -0.707107
-0.707107 -0.707107 0.000000
0.000000 0.707107 0.707107
0.707107 -0.707107 -0.000000
0.000000 0.707107 -0.707107
-0.000000 -0.707107 0.707107
-0.707107 0.000000 -0.707107
0.707107 -0.000000 0.707107
0.707107 0.707107 0.000000
-0.707107 -0.707107 -0.000000
0.000000 -0.707107 0.707107
-0.000000 0.707107 -0.707107
0.000000 -0.707107 -0.707107
-0.000000 0.707107 0.707107
0.707107 0.707107 -0.000000
-0.707107 -0.000000 0.707107
-0.000000 -0.707107 -0.707107
0.000000 -0.707107 -0.707107
-0.000000 0.707107 0.707107
0.707107 0.707107 0.000000
-0.707107 -0.707107 -0.000000
0.707107 0.707107 0.000000
-0.707107 -0.707107 -0.000000
0.707107 -0.000000 -0.707107
-0.707107 0.000000 0.707107
0.000000 0.707107 -0.707107
-0.000000 -0.707107 0.707107
-0.000000 0.707107 0.707107
0.000000 -0.707107 -0.707107
0.000000 -0.707107 -0.707107
0.707107 -0.000000 -0.707107
-0.707107 0.000000 0.707107
-0.000000 0.707107 0.707107
-0.000000 -0.707107 -0.707107
0.000000 0.707107 -0.707107
-0.000000 -0.707107 0.707107
0.000000 0.707107 -0.707107
-0.000000 -0.707107 0.707107
-0.707107 0.707107 -0.000000
0.707107 -0.707107 0.000000
-0.707107 0.000000 -0.707107
0.707107 -0.000000 0.707107
0.707107 0.707107 -0.000000
-0.707107 -0.000000 0.707107
0.000000 -0.707107 -0.707107
-0.707107 0.000000 0.707107
0.707107 -0.000000 -0.707107
-0.000000 -0.707107 -0.707107
-0.000000 0.707107 0.707107
0.707107 0.000000 0.707107
-0.000000 0.707107 -0.707107
-0.707107 -0.707107 -0.000000
0.707107 -0.707107 -0.000000
-0.707107 0.707107 0.000000
0.000000 -0.707107 -0.707107
-0.707107 0.707107 -0.000000
0.707107 0.000000 0.707107
-0.000000 -0.707107 0.707107
0.000000 0.707107 -0.707107
0.707107 0.707107 -0.000000
-0.707107 -0.707107 0.000000
-0.707107 -0.707107 0.000000
0.707107 0.707107 -0.000000
0.000000 0.707107 0.707107
-0.000000 -0.707107 -0.707107
0.707107 0.707107 0.000000
-0.707107 -0.707107 -0.000000
0.707107 0.707107 -0.000000
-0.707107 -0.707107 0.000000
-0.000000 -0.707107 0.707107
0.000000 0.707107 -0.707107
0.000000 -0.707107 0.707107
-0.000000 0.707107 -0.707107
-0.707107 0.000000 -0.707107
0.707107 -0.000000 0.707107
0.000000 -0.707107 0.707107
-0.000000 0.707107 -0.707107
0.707107 0.000000 -0.707107
-0.707107 -0.000000 0.707107
-0.707107 -0.707107 -0.000000
0.707107 -0.000000 -0.707107
-0.000000 0.707107 0.707107
0.000000 0.707107 -0.707107
-0.000000 -0.707107 0.707107
-0.707107 -0.707107 0.000000
0.707107 0.707107 -0.000000
-0.000000 0.707107 -0.707107
0.707107 0.000000 0.707107
-0.707107 -0.707107 -0.000000
0.707107 0.000000 -0.707107
-0.707107 -0.000000 0.707107
-0.707107 -0.707107 0.000000
-0.000000 0.707107 -0.707107
0.707107 -0.000000 0.707107
0.707107 0.000000 -0.707107
-0.707107 -0.000000 0.707107
0.707107 0.000000 0.707107
-0.707107 -0.000000 -0.707107
-0.707107 0.707107 0.000000
0.707107 -0.707107 -0.000000
-0.707107 -0.000000 -0.707107
0.707107 -0.000000 0.707107
0.000000 -0.707107 -0.707107
-0.000000 0.707107 0.707107
0.707107 0.000000 -0.707107
0.000000 0.707107 0.707107
-0.707107 -0.707107 -0.000000
0.707107 0.000000 0.707107
-0.707107 -0.000000 -0.707107
-0.000000 -0.707107 -0.707107
0.000000 0.707107 0.707107
-0.707107 -0.707107 0.000000
0.707107 0.000000 -0.707107
0.000000 0.707107 0.707107
0.707107 0.000000 0.707107
-0.707107 -0.000000 -0.707107
-0.707107 -0.000000 0.707107
0.707107 0.000000 -0.707107
0.000000 -0.707107 -0.707107
0.000000 0.707107 0.707107
0.000000 -0.707107 -0.707107
-0.000000 0.707107 0.707107
-0.707107 0.000000 0.707107
0.707107 0.000000 -0.707107
-0.000000 0.707107 0.707107
0.000000 -0.707107 -0.707107
0.707107 0.000000 -0.707107
-0.707107 0.707107 -0.000000
0.000000 -0.707107 0.707107
0.000000 -0.707107 0.707107
-0.000000 0.707107 -0.707107
-0.707107 0.000000 0.707107
0.707107 -0.000000 -0.707107
-0.000000 0.000000 1.414214
0.000000 -0.000000 -1.414214
0.707107 0.000000 -0.707107
-0.707107 0.000000 0.707107
-0.707107 -0.000000 0.707107
0.707107 0.707107 -0.000000
0.000000 -0.707107 -0.707107
-0.000000 -0.707107 0.707107
0.000000 0.707107 -0.707107
0.000000 1.414214 -0.000000
-0.000000 -1.414214 0.000000
-0.000000 0.707107 -0.707107
-0.000000 -0.707107 0.707107
0.707107 -0.000000 -0.707107
-0.707107 0.000000 0.707107
0.000000 -0.707107 -0.707107
-0.000000 0.707107 0.707107
0.707107 0.000000 -0.707107
-0.707107 0.000000 0.707107
0.707107 0.000000 0.707107
-0.707107 -0.000000 -0.707107
-0.707107 -0.707107 0.000000
-0.707107 -0.707107 0.000000
0.707107 0.707107 -0.000000
-0.000000 -0.707107 0.707107
0.707107 0.707107 -1.414214
-0.707107 0.000000 0.707107
-0.707107 -0.707107 -0.000000
0.707107 0.707107 -0.000000
0.707107 0.707107 -0.000000
-0.707107 -0.707107 0.000000
0.707107 0.707107 -0.000000
-0.707107 -0.707107 -0.000000
0.707107 -0.000000 -0.707107
-0.707107 0.000000 0.707107
-0.000000 0.707107 -0.707107
-0.000000 -0.707107 0.707107
0.707107 0.707107 -0.000000
-0.707107 -0.707107 0.000000
-0.000000 0.707107 -0.707107
-0.000000 -0.707107 0.707107
0.707107 -0.000000 -0.707107
-0.707107 0.000000 0.707107
0.707107 0.000000 -0.707107
-0.707107 -0.000000 0.707107
-0.707107 0.000000 -0.707107
0.707107 -0.000000 0.707107
-0.000000 0.707107 0.707107
-0.000000 -0.707107 -0.707107
-0.707107 -0.000000 0.707107
0.707107 0.000000 0.707107
0.707107 0.000000 -0.707107
-0.707107 -0.000000 -0.707107
0.707107 -0.707107 -0.000000
-0.707107 0.707107 0.000000
0.000000 0.707107 0.707107
-0.000000 -0.707107 -0.707107
-0.707107 0.000000 -0.707107
0.707107 -0.000000 0.707107
-0.707107 0.000000 -0.707107
0.707107 -0.000000 0.707107
0.707107 0.000000 0.707107
-0.707107 -0.000000 -0.707107
0.000000 0.707107 -0.707107
-0.000000 -0.707107 -0.707107
-0.000000 -0.000000 1.414214
-0.707107 -0.000000 0.707107
0.707107 -0.000000 -0.707107
-0.707107 0.000000 0.707107
0.707107 -0.000000 -0.707107
-0.707107 0.707107 0.000000
0.707107 -0.707107 -0.000000
-0.707107 0.000000 0.707107
0.707107 0.000000 -0.707107
-0.707107 0.000000 -0.707107
0.707107 -0.000000 0.707107
-0.000000 0.707107 -0.707107
-0.707107 -0.707107 0.000000
0.707107 -0.000000 0.707107
0.707107 0.000000 -0.707107
-0.707107 -0.000000 0.707107
-0.707107 -0.000000 0.707107
-0.707107 0.000000 0.707107
0.707107 -0.000000 -0.707107
0.000000 -0.707107 0.707107
-0.000000 0.707107 -0.707107
0.707107 -0.000000 0.707107
-0.707107 -0.707107 0.000000
-0.707107 0.707107 0.000000
0.707107 0.000000 -0.707107
0.707107 0.000000 -0.707107
-0.707107 -0.000000 0.707107
0.000000 -0.707107 0.707107
-0.000000 0.707107 -0.707107
0.000000 -0.707107 -0.707107
-0.707107 -0.000000 0.707107
0.707107 0.707107 -0.000000
-0.707107 0.000000 0.707107
0.707107 -0.000000 -0.707107
-0.707107 -0.000000 -0.707107
0.707107 -0.000000 0.707107
-0.000000 0.707107 -0.707107
0.000000 -0.707107 0.707107
0.707107 -0.000000 -0.707107
-0.707107 0.000000 0.707107
0.707107 0.000000 0.707107
-0.707107 -0.000000 -0.707107
-0.707107 -0.707107 0.000000
0.707107 0.707107 -0.000000
-0.000000 0.707107 0.707107
0.000000 -0.707107 -0.707107
-0.000000 0.707107 -0.707107
-0.707107 -0.707107 -0.000000
0.707107 0.000000 0.707107
-0.707107 0.000000 0.707107
0.707107 -0.000000 -0.707107
0.000000 -0.707107 -0.707107
-0.000000 0.707107 0.707107
0.707107 0.000000 -0.707107
-0.707107 -0.000000 0.707107
-0.707107 0.000000 -0.707107
0.000000 -0.707107 0.707107
0.707107 0.707107 -0.000000
-0.707107 0.000000 -0.707107
0.707107 -0.707107 -0.000000
0.000000 0.707107 0.707107
0.000000 -0.707107 -0.707107
-0.000000 0.707107 0.707107
0.707107 0.707107 0.000000
-0.707107 -0.707107 -0.000000
0.000000 -0.707107 -0.707107
-0.707107 1.414214 0.707107
0.707107 -0.707107 0.000000
-0.000000 -0.707107 -0.707107
-0.000000 -0.707107 0.707107
0.000000 1.414214 0.000000
0.000000 -0.707107 0.707107
-0.000000 0.707107 -0.707107
0.000000 -0.707107 0.707107
0.000000 -0.707107 -0.707107
-0.000000 0.707107 -0.707107
0.707107 0.000000 -0.707107
-0.707107 -0.000000 0.707107
-0.707107 0.707107 0.000000
0.707107 -0.707107 -0.000000
-0.707107 0.000000 -0.707107
0.707107 0.000000 0.707107
0.000000 -0.707107 -0.707107
-0.000000 0.707107 0.707107
-0.707107 -0.707107 0.000000
0.707107 0.707107 -0.000000
0.707107 -0.707107 -0.000000
-0.707107 0.707107 -0.000000
-0.000000 -0.707107 0.707107
0.707107 0.000000 -0.707107
-0.707107 0.707107 0.000000
0.707107 -0.000000 0.707107
-0.707107 0.000000 -0.707107
-0.000000 -0.707107 -0.707107
0.000000 0.707107 0.707107
0.000000 -0.707107 -0.707107
-0.000000 0.707107 0.707107
-0.707107 0.707107 0.000000
0.707107 -0.707107 -0.000000
0.707107 -0.707107 0.000000
-0.707107 0.707107 -0.000000
0.707107 -0.707107 0.000000
-0.707107 0.707107 -0.000000
-0.707107 0.000000 0.707107
0.000000 -0.000000 -1.414214
0.707107 0.000000 0.707107
0.000000 -0.707107 0.707107
-0.000000 0.707107 -0.707107
-0.707107 0.000000 -0.707107
0.707107 0.000000 0.707107
-0.707107 -0.707107 -0.000000
0.707107 0.707107 0.000000
0.707107 0.707107 0.000000
-0.707107 -0.707107 -0.000000
-0.707107 0.000000 0.707107
0.707107 -0.000000 -0.707107
0.707107 0.000000 -0.707107
-0.707107 -0.000000 0.707107
-0.707107 -0.000000 0.707107
0.707107 0.000000 0.707107
-0.707107 -0.000000 -0.707107
0.707107 -0.000000 0.707107
-0.707107 0.000000 -0.707107
0.000000 -0.707107 0.707107
-0.000000 0.707107 -0.707107
-0.000000 0.707107 -0.707107
-0.707107 0.000000 0.707107
0.707107 -0.000000 -0.707107
0.707107 -0.000000 0.707107
-0.707107 0.000000 -0.707107
0.707107 0.000000 -0.707107
-0.707107 -0.000000 0.707107
0.707107 -0.000000 -0.707107
-0.707107 0.000000 0.707107
0.707107 0.707107 0.000000
-0.707107 -0.707107 -0.000000
0.707107 0.000000 -0.707107
-0.707107 -0.000000 0.707107
0.707107 0.000000 -0.707107
-0.707107 -0.000000 0.707107
0.707107 0.707107 0.000000
-0.707107 -0.707107 -0.000000
-0.707107 0.707107 0.000000
0.707107 -0.707107 -0.000000
0.707107 0.000000 0.707107
-0.707107 0.000000 -0.707107
-0.707107 -0.000000 0.707107
0.707107 0.000000 -0.707107
0.000000 -0.707107 -0.707107
-0.000000 0.707107 0.707107
0.000000 0.707107 -0.707107
-0.000000 -0.707107 0.707107
-0.000000 0.707107 0.707107
-0.707107 -0.707107 -0.000000
0.707107 -0.000000 -0.707107
-0.707107 0.000000 -0.707107
0.707107 -0.000000 0.707107
0.707107 0.707107 0.000000
-0.707107 -0.707107 0.000000
-0.707107 0.707107 0.000000
0.707107 -0.707107 -0.000000
0.707107 -0.707107 -0.000000
-0.000000 0.707107 0.707107
0.000000 -0.707107 -0.707107
0.707107 -0.000000 -0.707107
0.707107 -0.707107 -0.000000
-0.000000 0.707107 -0.707107
-0.707107 -0.000000 0.707107
0.000000 -0.707107 -0.707107
-0.000000 0.707107 0.707107
-0.000000 -0.707107 -0.707107
0.000000 0.707107 0.707107
-0.707107 0.000000 -0.707107
0.707107 -0.000000 0.707107
-0.707107 0.707107 0.000000
0.707107 -0.707107 0.000000
0.707107 -0.000000 -0.707107
-0.707107 0.000000 0.707107
0.707107 -0.000000 0.707107
-0.707107 0.000000 -0.707107
-0.000000 0.707107 0.707107
-0.707107 -0.000000 -0.707107
0.707107 -0.707107 -0.000000
0.000000 0.707107 -0.707107
-0.000000 -0.707107 0.707107
-0.000000 -0.707107 -0.707107
0.000000 0.707107 0.707107
0.707107 -0.000000 0.707107
0.707107 -0.707107 -0.000000
-0.707107 0.707107 -0.000000
0.000000 0.707107 -0.707107
0.707107 0.000000 0.707107
-0.707107 -0.707107 -0.000000
-0.707107 -0.707107 -0.000000
0.707107 0.707107 0.000000
0.000000 -0.707107 0.707107
0.000000 0.707107 -0.707107
0.000000 0.707107 0.707107
-0.000000 -0.707107 -0.707107
0.707107 0.000000 -0.707107
-0.707107 -0.000000 0.707107
-0.707107 -0.000000 0.707107
-0.000000 -0.707107 0.707107
-0.707107 0.707107 -0.000000
0.707107 0.000000 -0.707107
0.000000 0.707107 0.707107
-0.000000 -0.707107 -0.707107
-0.707107 -0.707107 0.000000
0.707107 0.707107 -0.000000
0.000000 -1.414214 0.000000
0.707107 0.707107 0.000000
-0.707107 0.707107 0.000000
-0.707107 -0.707107 0.000000
0.707107 0.707107 -0.000000
0.000000 -0.707107 -0.707107
-0.000000 0.707107 0.707107
-0.000000 0.707107 0.707107
0.707107 0.707107 0.000000
-0.707107 -0.707107 -0.000000
0.000000 0.707107 0.707107
-0.000000 -0.707107 -0.707107
-0.000000 -0.707107 -0.707107
0.000000 0.707107 0.707107
-0.707107 -0.000000 -0.707107
0.000000 -0.707107 0.707107
0.707107 0.707107 0.000000
-0.707107 -0.707107 -0.000000
0.707107 0.707107 -0.000000
0.707107 0.000000 -0.707107
-0.707107 -0.000000 0.707107
0.000000 0.707107 -0.707107
0.707107 -0.000000 0.707107
-0.707107 -0.707107 -0.000000
0.000000 -0.707107 -0.707107
-0.000000 0.707107 0.707107
-0.000000 -0.000000 -1.414214
0.000000 0.000000 1.414214
0.000000 0.707107 -0.707107
-0.707107 -0.707107 -0.000000
0.707107 -0.000000 0.707107
0.707107 0.707107 -0.000000
-0.707107 -0.707107 0.000000
-0.000000 -0.707107 0.707107
0.707107 0.000000 -0.707107
-0.707107 0.707107 -0.000000
-0.707107 0.707107 -0.000000
0.707107 -0.707107 0.000000
0.707107 0.000000 -0.707107
-0.707107 -0.000000 0.707107
0.000000 0.707107 0.707107
0.000000 -0.707107 -0.707107
0.707107 0.707107 -0.000000
-0.707107 -0.707107 0.000000
-0.707107 -0.000000 -0.707107
0.707107 0.707107 -0.000000
0.000000 -0.707107 0.707107
0.000000 -0.707107 0.707107
-0.000000 0.707107 0.707107
-0.707107 0.000000 -0.707107
0.707107 -0.707107 -0.000000
-0.000000 0.707107 0.707107
0.000000 -0.707107 -0.707107
0.707107 0.000000 0.707107
-0.707107 0.000000 -0.707107
0.000000 -0.707107 0.707107
-0.000000 0.707107 -0.707107
-0.707107 0.707107 0.000000
0.707107 -0.707107 -0.000000
0.000000 -0.707107 0.707107
-0.000000 0.707107 -0.707107
0.707107 0.000000 -0.707107
-0.707107 -0.000000 0.707107
0.000000 0.707107 -0.707107
-0.000000 -0.707107 0.707107
0.000000 -0.707107 0.707107
-0.000000 0.707107 -0.707107
0.707107 0.707107 0.000000
-0.707107 -0.707107 -0.000000
0.707107 0.707107 0.000000
-0.707107 -0.707107 -0.000000
-0.707107 -0.707107 -0.000000
0.707107 0.707107 0.000000
-0.707107 0.000000 -0.707107
0.707107 -0.000000 0.707107
0.707107 -0.000000 -0.707107
-0.707107 0.000000 0.707107
-0.707107 0.000000 -0.707107
0.707107 -0.000000 0.707107
0.707107 -0.707107 0.000000
-0.707107 0.707107 -0.000000
-0.000000 0.707107 0.707107
-0.000000 0.707107 0.707107
0.707107 -0.707107 0.000000
-0.707107 0.000000 -0.707107
-0.707107 0.000000 -0.707107
-0.707107 -0.707107 -0.000000
-0.000000 -0.707107 -0.707107
0.000000 0.707107 0.707107
0.707107 0.707107 -0.000000
-0.707107 0.000000 -0.707107
0.000000 -0.707107 0.707107
0.000000 0.707107 0.707107
0.707107 0.000000 -0.707107
-0.707107 -0.707107 0.000000
-0.707107 0.000000 0.707107
0.707107 -0.000000 -0.707107
-0.000000 0.707107 0.707107
0.000000 -0.707107 -0.707107
0.000000 -0.707107 -0.707107
-0.000000 0.707107 0.707107
-0.707107 0.000000 -0.707107
0.707107 -0.707107 0.000000
-0.000000 0.707107 0.707107
0.000000 0.707107 -0.707107
-0.707107 -0.000000 0.707107
0.707107 -0.707107 0.000000
0.000000 -0.707107 -0.707107
-0.000000 0.707107 0.707107
0.000000 0.707107 0.707107
-0.000000 -0.707107 -0.707107
-0.707107 -0.707107 -0.000000
0.707107 0.707107 0.000000
-0.000000 0.707107 -0.707107
-0.000000 -0.000000 1.414214
0.000000 -0.707107 -0.707107
0.707107 0.000000 0.707107
-0.707107 -0.000000 -0.707107
-0.707107 -0.000000 -0.707107
0.707107 -0.000000 0.707107
0.000000 -0.707107 -0.707107
-0.000000 0.707107 0.707107
0.707107 -0.707107 -0.000000
-0.000000 0.707107 0.707107
-0.707107 0.000000 -0.707107
-0.707107 -0.000000 0.707107
0.707107 0.000000 -0.707107
-0.707107 0.707107 0.000000
0.707107 -0.707107 -0.000000
0.000000 -0.707107 -0.707107
-0.000000 0.707107 0.707107
0.707107 0.707107 0.000000
0.707107 0.000000 0.707107
-0.707107 -0.000000 -0.707107
0.000000 -0.707107 -0.707107
-0.000000 0.707107 0.707107
0.707107 -0.707107 0.000000
-0.707107 0.707107 -0.000000
-0.000000 -0.707107 0.707107
0.707107 0.707107 -0.000000
0.707107 0.707107 -0.000000
0.707107 0.000000 0.707107
0.000000 -0.707107 -0.707107
-0.707107 0.707107 0.000000
0.000000 -0.707107 -0.707107
-0.000000 0.707107 0.707107
-0.707107 -0.000000 0.707107
0.707107 0.000000 -0.707107
0.707107 0.000000 0.707107
-0.707107 -0.000000 -0.707107
0.707107 0.000000 0.707107
-0.707107 -0.000000 -0.707107
0.000000 0.707107 -0.707107
-0.000000 -0.707107 0.707107
0.707107 0.707107 0.000000
-0.707107 -0.707107 -0.000000
-0.707107 -0.707107 0.000000
0.707107 0.707107 -0.000000
-0.000000 -0.707107 -0.707107
-0.000000 0.707107 0.707107
-0.707107 0.000000 0.707107
0.707107 -0.000000 -0.707107
0.707107 -0.000000 -0.707107
0.000000 -0.707107 0.707107
-0.000000 -0.707107 0.707107
0.707107 -0.000000 -0.707107
-0.707107 0.707107 0.000000
-1.414214 -0.000000 -0.000000
1.414214 0.000000 0.000000
-0.000000 -0.707107 0.707107
0.000000 0.707107 -0.707107
-0.000000 -0.707107 -0.707107
-0.000000 0.707107 0.707107
-0.707107 0.000000 0.707107
0.707107 -0.000000 -0.707107
-0.707107 0.000000 -0.707107
0.707107 -0.000000 0.707107
0.707107 -0.000000 0.707107
-0.707107 0.000000 -0.707107
-0.707107 -0.000000 -0.707107
-0.000000 0.707107 0.707107
0.707107 -0.707107 0.000000
-0.707107 -0.000000 -0.707107
0.707107 0.000000 0.707107
-0.000000 0.707107 -0.707107
0.000000 -0.707107 0.707107
0.000000 -0.707107 -0.707107
-0.000000 0.707107 0.707107
-0.707107 0.707107 0.000000
0.707107 -0.707107 -0.000000
-0.000000 0.707107 -0.707107
0.000000 -0.707107 0.707107
0.000000 -0.707107 0.707107
-0.000000 0.707107 -0.707107
0.707107 -0.707107 0.000000
-0.707107 0.707107 0.000000
0.000000 -0.707107 0.707107
-0.000000 0.707107 -0.707107
-0.000000 -0.707107 -0.707107
0.000000 0.707107 0.707107
0.000000 -0.707107 0.707107
-0.000000 0.707107 -0.707107
-0.707107 0.000000 -0.707107
0.000000 0.707107 0.707107
0.707107 -0.707107 -0.000000
0.000000 -0.707107 -0.707107
-0.707107 0.707107 0.000000
0.707107 0.000000 0.707107
-0.707107 0.000000 -0.707107
0.707107 -0.000000 0.707107
0.707107 0.707107 0.000000
-0.707107 -0.707107 -0.000000
-0.707107 0.707107 -0.000000
0.707107 -0.707107 0.000000