# vtk DataFile Version 3.0
Configuration exported from OpenDiS
ASCII
DATASET UNSTRUCTURED_GRID
POINTS 47410 FLOAT
-29412.000000 -29412.000000 -29412.000000
29412.000000 -29412.000000 -29412.000000
-29412.000000 29412.000000 -29412.000000
-29412.000000 -29412.000000 29412.000000
29412.000000 29412.000000 -29412.000000
29412.000000 -29412.000000 29412.000000
-29412.000000 29412.000000 29412.000000
29412.000000 29412.000000 29412.000000
20998.489345 2836.777549 4605.808833
20996.610711 2851.252983 4589.454765
20998.489345 2836.777549 4605.808833
20458.595738 2987.340892 5296.265783
-12648.550504 14622.710970 -21397.788779
-12294.544685 15269.901937 -20396.591992
-12648.550504 14622.710970 -21397.788779
-12361.786835 14085.189347 -21648.546733
-12648.550504 14622.710970 -21397.788779
-13099.227441 14824.824592 -21646.352093
3836.725243 9923.474640 -16750.491731
4228.449856 10867.425327 -16198.265656
3836.725243 9923.474640 -16750.491731
3122.458750 9923.474640 -16036.225238
3836.725243 9923.474640 -16750.491731
4592.348609 9173.998927 -16756.639382
3836.725243 9923.474640 -16750.491731
3790.568460 10904.479589 -17685.339896
-927.876030 16466.482171 -10460.430113
-1445.667255 16583.385706 -11095.124874
-927.876030 16466.482171 -10460.430113
-543.510829 16336.100633 -9945.683375
-927.876030 16466.482171 -10460.430113
-1013.584500 16497.737822 -10343.465992
-927.876030 16466.482171 -10460.430113
-397.571951 16177.229229 -11279.987134
9880.365597 20266.707723 -4079.857440
9260.353056 19766.447183 -5200.130521
9880.365597 20266.707723 -4079.857440
10284.585801 20697.393545 -3244.951414
-6440.612082 -20610.689556 15000.441503
-6196.783848 -20052.892348 14198.816061
-6440.612082 -20610.689556 15000.441503
-6907.011056 -21054.952112 15911.103034
916.693909 15555.065163 1520.825275
421.528617 16324.282667 1794.877487
916.693909 15555.065163 1520.825275
1377.997295 14581.661362 1008.724860
-22688.877337 14293.186072 28953.982290
-22605.876355 14154.015193 28953.982290
-22688.877337 14293.186072 28953.982290
-22688.878317 14321.090374 28981.887570
-22688.877337 14293.186072 28953.982290
-22927.957890 13523.464389 27945.182013
-2410.170682 -12646.285404 8482.278691
-1956.213317 -12646.285404 8000.279488
-2410.170682 -12646.285404 8482.278691
-2984.509684 -12646.285404 9066.928350
-23927.842053 -22014.581501 23844.406497
-23264.991899 -20672.422427 23165.097530
-23927.842053 -22014.581501 23844.406497
-24365.059015 -23157.791839 24550.399778
-23927.842053 -22014.581501 23844.406497
-24010.373969 -22002.972459 23938.547456
-23608.614465 622.761273 -17297.454031
-23608.615288 1387.778728 -18062.467388
-23608.614465 622.761273 -17297.454031
-23608.614629 -268.435192 -16408.044932
10488.445430 24438.968648 21522.541026
9188.621667 23139.145101 21522.541026
10488.445430 24438.968648 21522.541026
10800.285619 24750.808612 21522.541026
10488.445430 24438.968648 21522.541026
11014.377557 23971.988969 20529.629005
4857.091696 -14259.068813 26050.077898
4815.120891 -15009.406209 25257.769697
4857.091696 -14259.068813 26050.077898
3885.376335 -15230.785989 26050.077898
18905.774912 -5843.899902 -26903.670338
19292.596583 -6868.349735 -25493.195969
18905.774912 -5843.899902 -26903.670338
18824.097956 -4843.587844 -27984.862217
-182.813295 -21850.904338 -17417.221105
894.653712 -20553.102344 -17196.887606
-182.813295 -21850.904338 -17417.221105
-1668.240311 -23057.776122 -17138.664386
-6474.938176 15728.635184 -8565.502080
-5759.317292 16444.256067 -8565.502080
-6474.938176 15728.635184 -8565.502080
-7234.837673 14968.735686 -8565.502080
-10535.104646 -21948.717413 -24338.176045
-9885.033831 -20973.695554 -24013.225000
-10535.104646 -21948.717413 -24338.176045
-11398.947060 -22783.590436 -24309.206653
10106.032804 -22344.067728 2209.196032
9191.809331 -22966.886375 672.153912
10106.032804 -22344.067728 2209.196032
10775.992300 -22338.100208 2885.123048
-1557.999528 -4392.106778 -15680.213000
-2066.604443 -4884.339647 -15680.213000
-1557.999528 -4392.106778 -15680.213000
-1248.745875 -4545.276856 -15524.129425
-1557.999528 -4392.106778 -15680.213000
-1976.659733 -4336.657408 -16043.423836
-1557.999528 -4392.106778 -15680.213000
-568.569074 -3385.077508 -15680.213000
20844.732902 8949.938700 2682.637048
20548.920662 9740.543495 3177.429603
20844.732902 8949.938700 2682.637048
21896.220139 8949.938700 3734.124285
20844.732902 8949.938700 2682.637048
20247.806820 9050.685430 1984.964237
26255.058845 -7255.952181 13154.565550
25505.390978 -6154.843777 13506.006088
26255.058845 -7255.952181 13154.565550
27028.716179 -8159.566119 13024.608946
27080.016317 -22249.002918 15026.204377
26386.632745 -22891.531069 15077.059799
27080.016317 -22249.002918 15026.204377
26742.108025 -21916.621481 15020.677522
-22232.772994 -1788.625244 -14826.454116
-21363.547578 -1788.625244 -15695.679532
-22232.772994 -1788.625244 -14826.454116
-22746.057412 -1775.464309 -14326.330633
-22232.772994 -1788.625244 -14826.454116
-23089.730011 -1375.903971 -15272.917629
-22129.130057 19173.543918 -6620.190007
-22477.038758 19815.678761 -7610.233552
-22129.130057 19173.543918 -6620.190007
-21957.872796 18514.815703 -5790.204532
19446.634946 -10433.360432 -15305.933343
19328.788039 -9451.611201 -16405.529481
19446.634946 -10433.360432 -15305.933343
20106.118258 -11051.445806 -14028.364657
20107.593956 -20705.620279 11186.061942
19073.974195 -21595.259718 11330.268978
20107.593956 -20705.620279 11186.061942
21381.673955 -19851.045033 10766.557189
8232.386352 13695.544515 -26986.411530
9037.808231 13587.125087 -27900.252837
8232.386352 13695.544515 -26986.411530
7245.103476 14059.569231 -25635.103938
28816.595044 21698.589594 25562.452679
27710.622427 22085.656094 24843.546560
28816.595044 21698.589594 25562.452679
29194.999156 22271.273053 24611.365108
28816.595044 21698.589594 25562.452679
29188.609220 21230.560227 26402.763423
-9827.001578 27341.631095 -27292.627542
-10047.137843 27644.361580 -27375.221762
-9827.001578 27341.631095 -27292.627542
-8980.405954 26018.443890 -26816.008636
24639.095468 -2994.093919 15800.458200
23863.061933 -3504.914618 14513.603593
24639.095468 -2994.093919 15800.458200
25175.607792 -2240.831949 17090.233240
-15315.957929 -24528.624795 4028.483478
-14901.030346 -23894.738714 5077.297142
-15315.957929 -24528.624795 4028.483478
-15810.645131 -24800.592134 3261.828938
-10077.690542 15004.005302 -12312.726898
-10453.058289 15608.959056 -13293.048399
-10077.690542 15004.005302 -12312.726898
-9897.786090 14627.147596 -11755.964740
-1587.359854 -28948.891639 22298.046509
-1595.130073 -29412.000004 21827.167925
-1595.130073 29411.999984 21827.167925
-1598.208824 29228.505099 21640.594277
-1587.359854 -28948.891639 22298.046509
-1713.318681 -28077.985201 23043.039049
-14547.801082 -4930.791561 -22832.560171
-14223.087676 -4606.078155 -22832.560171
-14547.801082 -4930.791561 -22832.560171
-15385.811890 -5768.802370 -22832.560171
12243.498788 -10095.538029 -7582.145936
12311.270092 -10083.405972 -7502.730927
12243.498788 -10095.538029 -7582.145936
12036.700733 -9907.397696 -7600.803658
12243.498788 -10095.538029 -7582.145936
12186.578265 -10513.127721 -8056.656150
-14700.209289 10090.254469 28305.418166
-14810.199119 9612.306942 28673.375863
-14700.209289 10090.254469 28305.418166
-14510.839920 10693.549914 27891.492091
-17099.392519 -22111.358626 -11836.688980
-16395.981760 -22111.358626 -12540.087444
-17099.392519 -22111.358626 -11836.688980
-18284.165704 -22111.378779 -10643.688182
-27462.485792 24187.136210 -13998.882435
-28712.302900 24113.626562 -12822.567648
-27462.485792 24187.136210 -13998.882435
-26771.405336 24080.943496 -14796.159303
-17410.375195 413.502325 6715.236847
-17889.716817 811.539410 5837.858141
-17410.375195 413.502325 6715.236847
-17194.113899 69.374299 7275.663381
-8030.516138 -9883.379681 17538.159601
-8653.226678 -9372.883839 17425.944904
-8030.516138 -9883.379681 17538.159601
-7568.439863 -10400.942286 17482.673272
27789.762439 -17795.968192 26760.058988
28317.047096 -18024.662705 26459.078405
27789.762439 -17795.968192 26760.058988
28261.164418 -18530.885799 27023.574617
27789.762439 -17795.968192 26760.058988
28227.325970 -17104.566818 26511.251247
15359.504944 -8018.244128 21788.491772
15696.559367 -7941.315435 21528.366041
15359.504944 -8018.244128 21788.491772
14971.199671 -8363.661151 21831.380021
15359.504944 -8018.244128 21788.491772
16416.503542 -7977.550118 22886.184380
8257.376456 4571.602439 27276.209851
8698.316800 3571.665730 26717.213486
8257.376456 4571.602439 27276.209851
7584.873305 5655.200908 27687.305169
-4418.945915 -17844.760903 -23794.689691
-3671.287353 -18592.419392 -23794.689691
-4418.945915 -17844.760903 -23794.689691
-5179.399086 -17084.307637 -23794.689691
12339.979835 -19911.578659 -19638.514944
12211.852505 -21303.675161 -18374.545771
12339.979835 -19911.578659 -19638.514944
12324.944024 -19190.574202 -20374.555211
24560.399377 -22937.020030 13507.602695
24879.988112 -23084.535884 13679.675576
24560.399377 -22937.020030 13507.602695
24477.423664 -23084.535884 13277.111127
24560.399377 -22937.020030 13507.602695
23736.256140 -21685.964790 13934.514688
24768.753179 -18436.010043 18216.966491
25510.489186 -17900.057738 19494.654803
24768.753179 -18436.010043 18216.966491
24182.209671 -19155.410697 16911.022330
-13194.159581 27733.825959 -17329.149209
-13905.591631 27719.343480 -16632.199639
-13194.159581 27733.825959 -17329.149209
-12460.575236 27624.873965 -18171.685549
-6519.688831 -12361.991860 -23651.129576
-6519.688831 -12000.245940 -24016.115602
-6519.688831 -12361.991860 -23651.129576
-6519.688831 -13083.673434 -22921.561463
15060.005052 -839.727113 22679.343151
14307.791278 -1431.444709 22839.839330
15060.005052 -839.727113 22679.343151
15917.502792 -147.389381 22514.183144
-11484.364122 -228.060187 20521.407764
-12069.259028 618.482711 20259.759772
-11484.364122 -228.060187 20521.407764
-11060.109892 -1044.753025 20913.846372
-15453.885644 -17826.933979 -16030.793090
[...]
CELL_DATA 23702
VECTORS Burgers FLOAT
0.000000 0.000000 0.000000
0.707107 0.707107 0.000000
-0.707107 -0.707107 0.000000
-0.707107 0.000000 -0.707107
-0.000000 0.707107 0.707107
0.707107 -0.707107 -0.000000
0.000000 -0.707107 -0.707107
0.707107 -0.000000 0.707107
0.000000 0.707107 -0.707107
-0.707107 0.000000 0.707107
0.707107 0.000000 0.707107
-0.707107 -0.000000 -0.707107
0.707107 -0.000000 -0.707107
-0.707107 0.000000 0.707107
0.707107 -0.000000 0.707107
-0.707107 0.000000 -0.707107
-0.000000 0.707107 -0.707107
0.000000 -0.707107 0.707107
0.000000 -0.707107 -0.707107
-0.000000 0.707107 0.707107
-0.707107 -0.707107 0.000000
0.707107 0.000000 -0.707107
0.000000 0.707107 0.707107
-0.707107 0.000000 -0.707107
0.707107 0.000000 0.707107
0.707107 0.000000 0.707107
-0.000000 0.707107 -0.707107
-0.707107 -0.707107 0.000000
-0.000000 0.707107 0.707107
0.000000 -0.707107 -0.707107
-0.000000 0.707107 -0.707107
0.707107 -0.707107 -0.000000
-0.707107 0.000000 0.707107
0.707107 -0.707107 -0.000000
-0.707107 0.707107 0.000000
0.000000 0.707107 -0.707107
-0.000000 -0.707107 0.707107
0.000000 -0.707107 -0.707107
-0.000000 0.707107 0.707107
0.707107 -0.707107 0.000000
-0.707107 0.707107 -0.000000
0.707107 0.000000 -0.707107
-0.707107 -0.000000 0.707107
-0.707107 0.707107 0.000000
0.707107 -0.707107 -0.000000
-0.707107 0.707107 0.000000
-0.707107 0.707107 -0.000000
0.707107 -0.707107 0.000000
0.707107 -0.707107 -0.000000
0.000000 -0.707107 -0.707107
-0.707107 0.000000 0.707107
0.707107 0.707107 0.000000
0.000000 0.707107 0.707107
-0.000000 -0.707107 -0.707107
0.000000 0.707107 0.707107
-0.000000 -0.707107 -0.707107
-0.707107 -0.000000 -0.707107
0.707107 -0.707107 0.000000
-0.000000 0.707107 0.707107
-0.000000 0.707107 -0.707107
0.000000 -0.707107 0.707107
0.707107 -0.000000 0.707107
-0.707107 0.000000 -0.707107
0.707107 0.707107 0.000000
-0.707107 -0.707107 -0.000000
-0.707107 -0.707107 0.000000
0.707107 0.707107 -0.000000
0.707107 0.000000 0.707107
0.000000 0.707107 -0.707107
-0.707107 -0.707107 -0.000000
0.707107 -0.707107 0.000000
-0.707107 0.707107 -0.000000
0.000000 0.707107 0.707107
-0.000000 -0.707107 -0.707107
0.707107 -0.707107 0.000000
-0.707107 0.707107 -0.000000
-0.707107 0.000000 -0.707107
0.707107 -0.000000 0.707107
0.000000 0.707107 0.707107
0.000000 0.707107 0.707107
-0.000000 -0.707107 -0.707107
-0.707107 0.707107 -0.000000
0.707107 -0.707107 0.000000
-0.707107 -0.000000 -0.707107
0.707107 -0.707107 -0.000000
0.000000 0.707107 0.707107
0.000000 0.707107 -0.707107
-0.000000 -0.707107 0.707107
-0.707107 0.000000 -0.707107
0.707107 -0.000000 0.707107
0.707107 0.707107 0.000000
-0.707107 -0.707107 -0.000000
-0.707107 0.000000 -0.707107
0.707107 -0.000000 0.707107
0.000000 -0.707107 -0.707107
-0.000000 0.707107 0.707107
-0.707107 0.707107 0.000000
0.707107 -0.000000 -0.707107
-0.000000 -0.707107 0.707107
-0.707107 0.000000 0.707107
0.707107 0.707107 0.000000
-0.000000 -0.707107 -0.707107
-0.000000 0.707107 0.707107
0.000000 -0.707107 -0.707107
0.707107 0.707107 0.000000
-0.707107 -0.707107 -0.000000
-0.707107 -0.000000 -0.707107
0.707107 0.000000 0.707107
0.707107 -0.000000 0.707107
-0.000000 -0.707107 -0.707107
-0.707107 0.707107 -0.000000
-0.000000 0.707107 0.707107
0.000000 -0.707107 -0.707107
0.707107 -0.000000 -0.707107
-0.707107 0.000000 0.707107
-0.000000 0.707107 0.707107
-0.000000 -0.707107 -0.707107
-0.707107 -0.707107 -0.000000
0.707107 0.707107 0.000000
0.000000 0.707107 -0.707107
-0.000000 -0.707107 0.707107
-0.707107 0.707107 -0.000000
0.707107 -0.707107 0.000000
-0.707107 0.000000 -0.707107
0.707107 -0.000000 0.707107
0.707107 0.707107 -0.000000
-0.707107 -0.000000 0.707107
0.000000 -0.707107 -0.707107
-0.707107 0.000000 0.707107
0.000000 -0.707107 -0.707107
0.707107 0.707107 0.000000
-0.000000 0.707107 0.707107
0.707107 0.000000 -0.707107
-0.707107 -0.707107 0.000000
0.000000 -0.707107 -0.707107
-0.000000 0.707107 0.707107
0.707107 -0.707107 -0.000000
-0.707107 0.707107 0.000000
0.707107 0.000000 0.707107
-0.707107 -0.000000 -0.707107
-0.707107 -0.000000 -0.707107
0.707107 0.000000 0.707107
-0.707107 0.000000 -0.707107
-0.707107 0.000000 -0.707107
0.707107 -0.000000 0.707107
-0.707107 -0.707107 0.000000
0.707107 0.707107 -0.000000
0.000000 0.707107 0.707107
-0.000000 -0.707107 -0.707107
-0.000000 0.707107 0.707107
-0.000000 0.707107 0.707107
0.000000 -0.707107 -0.707107
0.000000 -0.707107 -0.707107
-0.000000 0.707107 0.707107
0.707107 -0.707107 0.000000
-0.707107 0.707107 -0.000000
0.000000 -0.707107 0.707107
-0.000000 0.707107 -0.707107
0.707107 0.707107 -0.000000
-0.707107 -0.000000 -0.707107
-0.707107 -0.707107 -0.000000
0.707107 0.000000 0.707107
-0.707107 -0.707107 0.000000
0.707107 0.707107 -0.000000
0.707107 -0.000000 0.707107
-0.707107 0.000000 -0.707107
-0.707107 -0.707107 -0.000000
0.707107 -0.000000 -0.707107
-0.000000 0.707107 0.707107
-0.707107 -0.000000 0.707107
0.707107 0.707107 -0.000000
0.000000 -0.707107 -0.707107
-0.707107 -0.707107 0.000000
0.707107 0.707107 -0.000000
-0.000000 0.707107 0.707107
0.000000 -0.707107 0.707107
-0.000000 0.707107 -0.707107
0.000000 -0.707107 -0.707107
-0.000000 -0.707107 -0.707107
-0.707107 0.707107 0.000000
0.707107 -0.000000 0.707107
-0.707107 -0.707107 0.000000
0.707107 -0.000000 0.707107
0.000000 0.707107 -0.707107
0.707107 -0.000000 0.707107
-0.707107 0.000000 -0.707107
0.707107 0.000000 0.707107
-0.707107 -0.000000 -0.707107
0.000000 -0.707107 0.707107
-0.000000 0.707107 -0.707107
-0.707107 -0.000000 -0.707107
0.707107 -0.000000 0.707107
-0.000000 -0.707107 -0.707107
0.000000 0.707107 0.707107
-0.707107 -0.707107 -0.000000
0.707107 0.707107 0.000000
-0.000000 0.707107 0.707107
0.000000 -0.707107 -0.707107
0.000000 0.707107 -0.707107
0.000000 -0.707107 0.707107
-0.707107 -0.707107 0.000000
0.707107 0.000000 -0.707107
0.000000 0.707107 0.707107
0.000000 -0.707107 -0.707107
-0.000000 0.707107 0.707107
0.707107 -0.707107 -0.000000
-0.707107 0.707107 0.000000
-0.000000 0.707107 -0.707107
0.000000 -0.707107 0.707107
-0.707107 -0.000000 -0.707107
0.707107 -0.000000 0.707107
0.000000 -0.707107 -0.707107
-0.000000 0.707107 0.707107
-0.707107 0.000000 0.707107
0.707107 0.000000 -0.707107
0.707107 0.000000 -0.707107
-0.707107 -0.000000 0.707107
0.707107 -0.707107 0.000000
-0.707107 0.707107 -0.000000
-0.000000 -0.707107 0.707107
0.000000 0.707107 -0.707107
-0.707107 0.000000 0.707107
0.707107 -0.000000 -0.707107
0.000000 -0.707107 -0.707107
0.000000 0.707107 0.707107
0.707107 -0.000000 0.707107
-0.707107 0.707107 -0.000000
-0.000000 -0.707107 -0.707107
-0.707107 -0.000000 0.707107
0.707107 0.707107 -0.000000
0.000000 -0.707107 -0.707107
0.707107 0.000000 0.707107
-0.000000 0.707107 0.707107
-0.707107 -0.000000 -0.707107
0.000000 -0.707107 -0.707107
-0.707107 0.000000 -0.707107
0.707107 -0.000000 0.707107
0.707107 -0.000000 0.707107
-0.707107 0.000000 -0.707107
0.707107 -0.000000 -0.707107
-0.707107 0.000000 0.707107
-0.707107 0.000000 -0.707107
0.707107 -0.000000 0.707107
0.707107 0.000000 -0.707107
-0.707107 0.000000 0.707107
0.707107 0.000000 0.707107
-0.707107 -0.000000 -0.707107
-0.707107 -0.707107 0.000000
-0.707107 -0.707107 0.000000
0.707107 0.707107 -0.000000
0.707107 0.000000 0.707107
-0.707107 -0.000000 -0.707107
-0.707107 0.000000 -0.707107
0.707107 -0.000000 0.707107
0.707107 0.707107 -0.000000
-0.707107 -0.707107 0.000000
-0.707107 0.707107 0.000000
0.707107 -0.707107 -0.000000
0.000000 0.000000 1.414214
-0.000000 -0.000000 -1.414214
-0.000000 0.707107 -0.707107
-0.000000 -0.707107 0.707107
0.707107 0.707107 -0.000000
-0.707107 -0.707107 0.000000
0.707107 -0.000000 0.707107
-0.707107 0.000000 -0.707107
-0.707107 -0.707107 0.000000
0.707107 0.707107 -0.000000
0.707107 0.000000 -0.707107
-0.707107 -0.000000 0.707107
-0.707107 0.000000 -0.707107
0.707107 -0.000000 0.707107
-0.000000 -0.707107 -0.707107
0.000000 0.707107 0.707107
0.707107 -0.000000 0.707107
-0.707107 0.000000 -0.707107
0.707107 -0.000000 0.707107
-0.707107 -0.000000 -0.707107
0.000000 -0.707107 -0.707107
-0.000000 0.707107 0.707107
0.000000 -0.707107 -0.707107
-0.000000 0.707107 0.707107
-0.707107 0.000000 -0.707107
0.707107 -0.000000 0.707107
0.707107 0.707107 0.000000
-0.707107 -0.707107 -0.000000
0.000000 0.707107 -0.707107
-0.000000 -0.707107 -0.707107
-0.000000 -0.000000 1.414214
-0.707107 -0.000000 0.707107
0.707107 -0.000000 -0.707107
0.000000 -0.707107 -0.707107
-0.000000 0.707107 0.707107
0.000000 0.707107 0.707107
-0.000000 -0.707107 -0.707107
-0.707107 0.707107 0.000000
0.707107 -0.707107 -0.000000
-0.707107 0.000000 0.707107
0.707107 0.000000 -0.707107
0.707107 0.000000 0.707107
-0.707107 -0.000000 -0.707107
-0.000000 0.707107 -0.707107
-0.707107 -0.707107 0.000000
0.707107 0.000000 0.707107
0.707107 0.707107 0.000000
0.000000 -0.707107 -0.707107
-0.707107 -0.000000 0.707107
-0.707107 -0.000000 0.707107
-0.000000 0.707107 0.707107
0.000000 -0.707107 -0.707107
0.000000 -0.707107 0.707107
-0.000000 0.707107 -0.707107
0.000000 -0.707107 0.707107
0.707107 -0.000000 -0.707107
-0.707107 0.707107 0.000000
0.707107 0.000000 -0.707107
-0.707107 -0.000000 0.707107
0.707107 -0.000000 0.707107
-0.707107 0.000000 -0.707107
0.000000 -0.707107 -0.707107
-0.707107 -0.000000 0.707107
0.707107 0.707107 -0.000000
-0.707107 0.000000 0.707107
0.707107 -0.000000 -0.707107
-0.707107 -0.000000 -0.707107
0.707107 -0.000000 0.707107
-0.000000 0.707107 -0.707107
0.000000 -0.707107 0.707107
0.707107 -0.000000 -0.707107
-0.707107 0.000000 0.707107
0.707107 0.000000 0.707107
-0.707107 -0.000000 -0.707107
-0.707107 0.000000 0.707107
0.707107 -0.000000 -0.707107
0.707107 -0.000000 -0.707107
-0.000000 0.707107 0.707107
0.000000 -0.707107 -0.707107
-0.000000 0.707107 -0.707107
-0.707107 -0.707107 -0.000000
0.707107 0.000000 0.707107
-0.707107 0.000000 0.707107
0.707107 -0.000000 -0.707107
0.000000 -0.707107 -0.707107
-0.000000 0.707107 0.707107
0.707107 0.000000 -0.707107
-0.707107 -0.000000 0.707107
-0.707107 0.000000 -0.707107
0.000000 -0.707107 0.707107
0.707107 0.707107 -0.000000
-0.707107 0.000000 -0.707107
0.707107 -0.707107 -0.000000
0.000000 0.707107 0.707107
0.000000 -0.707107 -0.707107
-0.000000 0.707107 0.707107
0.000000 0.707107 -0.707107
-0.000000 -0.707107 0.707107
-0.707107 -0.707107 -0.000000
0.707107 0.707107 0.000000
-0.000000 -0.707107 -0.707107
-0.000000 -0.707107 0.707107
0.000000 1.414214 0.000000
0.000000 -0.707107 -0.707107
0.000000 0.707107 0.707107
0.707107 0.000000 -0.707107
-0.707107 -0.000000 0.707107
0.707107 0.000000 -0.707107
-0.707107 -0.000000 0.707107
-0.707107 0.707107 0.000000
0.707107 -0.707107 -0.000000
-0.707107 0.000000 0.707107
0.707107 -0.000000 -0.707107
0.000000 -0.707107 -0.707107
-0.000000 0.707107 0.707107
-0.707107 -0.707107 0.000000
0.707107 0.707107 -0.000000
0.707107 -0.707107 -0.000000
-0.707107 0.707107 -0.000000
0.000000 -0.707107 -0.707107
-0.000000 0.707107 0.707107
0.707107 0.707107 0.000000
-0.707107 -0.707107 -0.000000
0.707107 -0.000000 0.707107
-0.707107 0.000000 -0.707107
0.000000 -0.707107 -0.707107
-0.000000 0.707107 0.707107
-0.707107 0.707107 0.000000
0.707107 -0.707107 -0.000000
-0.707107 -0.707107 -0.000000
0.000000 0.707107 0.707107
0.707107 0.000000 -0.707107
0.000000 -0.707107 0.707107
-0.000000 0.707107 -0.707107
0.707107 0.000000 0.707107
-0.707107 0.000000 -0.707107
-0.000000 0.707107 0.707107
0.000000 -0.707107 -0.707107
-0.707107 0.000000 -0.707107
0.707107 0.000000 0.707107
0.000000 0.707107 0.707107
-0.000000 -0.707107 -0.707107
-0.707107 -0.000000 0.707107
-0.000000 -0.707107 -0.707107
0.707107 0.707107 -0.000000
-0.707107 0.707107 0.000000
0.707107 -0.707107 -0.000000
-0.707107 -0.707107 0.000000
0.707107 0.707107 -0.000000
0.707107 0.000000 0.707107
-0.707107 -0.000000 -0.707107
0.707107 -0.000000 0.707107
-0.707107 0.000000 -0.707107
0.000000 -0.707107 0.707107
-0.000000 0.707107 -0.707107
-0.000000 0.707107 -0.707107
0.000000 -0.707107 -0.707107
0.000000 0.707107 0.707107
0.707107 -0.000000 0.707107
-0.707107 0.000000 -0.707107
0.707107 0.000000 0.707107
-0.707107 -0.000000 -0.707107
-0.707107 0.707107 -0.000000
0.707107 -0.707107 0.000000
0.707107 0.707107 0.000000
-0.707107 -0.707107 -0.000000
0.707107 0.000000 -0.707107
-0.707107 -0.707107 -0.000000
0.000000 0.707107 0.707107
-0.707107 -0.000000 0.707107
0.000000 -0.000000 -1.414214
0.707107 0.000000 0.707107
0.000000 0.707107 0.707107
0.707107 -0.707107 -0.000000
-0.707107 -0.000000 -0.707107
1.414214 0.000000 -0.000000
-0.707107 -0.707107 0.000000
-0.707107 0.707107 -0.000000
0.707107 0.000000 0.707107
-0.707107 0.000000 -0.707107
-0.707107 -0.000000 0.707107
0.707107 0.000000 -0.707107
0.000000 0.707107 0.707107
0.000000 0.707107 0.707107
-0.000000 -0.707107 -0.707107
-0.000000 0.707107 0.707107
-0.707107 -0.707107 -0.000000
0.707107 -0.000000 -0.707107
-0.707107 0.000000 -0.707107
0.707107 -0.000000 0.707107
-0.000000 0.707107 -0.707107
0.000000 -0.707107 0.707107
0.707107 0.000000 -0.707107
0.000000 0.707107 0.707107
-0.707107 -0.707107 0.000000
-0.707107 -0.000000 0.707107
0.707107 0.000000 -0.707107
-0.707107 0.000000 0.707107
0.707107 -0.000000 -0.707107
-0.707107 0.000000 0.707107
0.707107 -0.000000 -0.707107
0.000000 -0.707107 -0.707107
-0.000000 0.707107 0.707107
-0.000000 -0.707107 -0.707107
0.000000 0.707107 0.707107
0.707107 0.000000 0.707107
-0.707107 -0.000000 -0.707107
-0.000000 0.707107 0.707107
-0.000000 -0.707107 -0.707107
0.707107 0.707107 0.000000
-0.707107 -0.707107 -0.000000
0.707107 0.000000 -0.707107
-0.707107 -0.000000 0.707107
-0.000000 0.707107 0.707107
-0.707107 -0.000000 -0.707107
0.707107 -0.707107 -0.000000
0.707107 0.707107 0.000000
-0.707107 -0.707107 -0.000000
0.000000 0.707107 0.707107
0.000000 -0.707107 -0.707107
0.000000 0.707107 -0.707107
-0.000000 -0.707107 0.707107
0.707107 0.000000 -0.707107
-0.707107 0.000000 0.707107
0.707107 0.000000 0.707107
-0.707107 -0.000000 -0.707107
-0.707107 -0.707107 -0.000000
0.707107 0.707107 0.000000
0.000000 -0.707107 0.707107
0.000000 0.707107 -0.707107
0.000000 0.707107 0.707107
-0.000000 -0.707107 -0.707107
0.707107 0.000000 -0.707107
-0.707107 -0.000000 0.707107
-0.000000 -0.707107 0.707107
-0.707107 0.707107 -0.000000
0.707107 -0.000000 -0.707107
-0.000000 -0.707107 0.707107
-0.000000 0.707107 -0.707107
-0.707107 -0.707107 0.000000
0.707107 0.707107 -0.000000
0.000000 -1.414214 0.000000
0.707107 0.707107 0.000000
-0.707107 0.707107 0.000000
-0.707107 -0.707107 0.000000
0.707107 0.707107 -0.000000
0.000000 -0.707107 -0.707107
-0.000000 0.707107 0.707107
-0.000000 0.707107 0.707107
0.000000 -0.707107 -0.707107
-0.000000 0.707107 0.707107
-0.707107 0.707107 -0.000000
0.000000 -0.707107 -0.707107
-0.000000 -0.707107 -0.707107
0.000000 0.707107 0.707107
0.000000 -0.707107 0.707107
0.707107 0.707107 0.000000
-0.707107 -0.000000 -0.707107
-0.707107 -0.707107 -0.000000
0.707107 0.707107 -0.000000
-0.707107 -0.000000 -0.707107
0.707107 0.000000 0.707107
0.707107 -0.707107 0.000000
-0.000000 0.707107 0.707107
-0.707107 -1.414214 -0.707107
-0.000000 0.707107 0.707107
0.707107 0.707107 -0.000000
-0.000000 -0.000000 -1.414214
0.000000 0.000000 1.414214
0.000000 0.707107 0.707107
-0.000000 -0.707107 -0.707107
0.707107 -0.000000 0.707107
-0.707107 0.000000 -0.707107
-0.707107 0.707107 -0.000000
-0.000000 -0.707107 0.707107
0.707107 0.000000 -0.707107
0.707107 -0.000000 -0.707107
-0.707107 0.000000 0.707107
0.707107 -0.707107 0.000000
-0.707107 0.707107 -0.000000
0.000000 0.707107 0.707107
0.707107 0.000000 -0.707107
-0.707107 -0.707107 0.000000
-0.707107 -0.707107 0.000000
0.000000 -0.707107 -0.707107
-0.000000 0.707107 0.707107
-0.000000 0.707107 0.707107
-0.000000 -0.707107 -0.707107
-0.707107 0.000000 0.707107
0.707107 -0.000000 -0.707107
-0.707107 0.707107 0.000000
0.707107 -0.707107 -0.000000
0.000000 -0.707107 0.707107
-0.000000 0.707107 -0.707107
-0.707107 0.707107 0.000000
0.707107 -0.707107 -0.000000
-0.707107 -0.707107 0.000000
0.707107 0.707107 -0.000000
0.707107 0.000000 -0.707107
-0.707107 -0.000000 0.707107
-0.000000 -0.707107 0.707107
0.707107 0.000000 -0.707107
-0.707107 0.707107 0.000000
0.000000 -0.707107 0.707107
-0.000000 0.707107 -0.707107
-0.707107 0.000000 -0.707107
0.707107 -0.000000 0.707107
0.707107 0.707107 0.000000
-0.707107 -0.707107 -0.000000
-0.707107 -0.707107 -0.000000
-0.707107 -0.707107 -0.000000
0.707107 0.707107 0.000000
0.000000 -0.707107 0.707107
-0.000000 0.707107 -0.707107
0.707107 -0.000000 0.707107
-0.707107 0.000000 -0.707107
-0.707107 0.000000 -0.707107
0.707107 -0.000000 0.707107
0.707107 -0.707107 0.000000
-0.707107 0.707107 -0.000000
-0.000000 0.707107 0.707107
-0.000000 0.707107 0.707107
0.707107 -0.707107 0.000000
-0.707107 0.000000 -0.707107
-0.707107 0.000000 -0.707107
-0.707107 -0.707107 -0.000000
-0.000000 -0.707107 -0.707107
0.000000 0.707107 0.707107
-0.000000 1.414214 -0.000000
-0.707107 -0.707107 -0.000000
0.000000 0.707107 0.707107
0.707107 -0.707107 0.000000
-0.707107 0.000000 -0.707107
0.000000 -0.707107 -0.707107
-0.000000 0.707107 0.707107
-0.000000 -0.707107 0.707107
0.000000 0.707107 -0.707107
-0.000000 -0.707107 -0.707107
0.000000 0.707107 0.707107
0.707107 -0.707107 0.000000
-0.000000 0.707107 0.707107
-0.707107 0.000000 -0.707107
-0.000000 0.707107 -0.707107
-0.707107 -0.000000 0.707107
0.707107 -0.707107 0.000000
0.707107 0.707107 -0.000000
-0.707107 -0.707107 -0.000000
-0.707107 -0.707107 -0.000000
-0.707107 -0.000000 0.707107
0.707107 0.707107 -0.000000
0.000000 -0.707107 -0.707107
-0.707107 0.000000 0.707107
0.707107 -0.000000 -0.707107
-0.000000 0.707107 -0.707107
-0.000000 -0.000000 1.414214
0.000000 -0.707107 -0.707107
-0.000000 -0.707107 -0.707107
0.000000 0.707107 0.707107
-0.707107 -0.000000 -0.707107
0.707107 -0.000000 0.707107
0.000000 -0.707107 -0.707107
-0.000000 0.707107 0.707107
0.707107 -0.707107 -0.000000
-0.000000 0.707107 0.707107
-0.707107 0.000000 -0.707107
-0.707107 -0.000000 0.707107
0.707107 0.000000 -0.707107
-0.707107 -0.000000 0.707107
0.707107 0.000000 -0.707107
0.707107 0.000000 -0.707107
-0.707107 0.000000 0.707107
0.707107 0.707107 0.000000
0.707107 0.000000 0.707107
-0.707107 -0.000000 -0.707107
-0.707107 -0.707107 0.000000
0.707107 0.707107 0.000000
0.707107 0.000000 -0.707107
-0.707107 -0.000000 0.707107
-0.000000 -0.707107 -0.707107
0.707107 0.707107 -0.000000
-0.707107 0.000000 0.707107
-0.707107 0.000000 -0.707107
0.707107 0.707107 -0.000000
-0.000000 -0.707107 0.707107
0.000000 -0.707107 -0.707107
-0.000000 0.707107 0.707107
-0.707107 -0.000000 0.707107
0.707107 0.000000 -0.707107
0.000000 1.414214 0.000000
-0.000000 -1.414214 -0.000000
0.707107 0.000000 0.707107
-0.707107 -0.000000 -0.707107
0.000000 -0.707107 -0.707107
-0.000000 0.707107 0.707107
0.000000 -0.707107 0.707107
-0.000000 0.707107 -0.707107
-0.000000 0.707107 -0.707107
0.000000 0.707107 0.707107
-0.000000 -0.707107 -0.707107
-0.707107 -0.707107 -0.000000
0.707107 0.707107 0.000000
0.707107 0.707107 0.000000
0.707107 -0.000000 0.707107
0.707107 -0.000000 -0.707107
0.000000 -0.707107 0.707107
-0.000000 -0.707107 0.707107
0.707107 -0.000000 -0.707107
-0.707107 0.707107 0.000000
-1.414214 -0.000000 -0.000000
1.414214 0.000000 0.000000
-0.707107 0.000000 0.707107
0.707107 -0.000000 -0.707107
-0.707107 0.000000 0.707107
0.707107 -0.000000 -0.707107
-0.707107 0.707107 0.000000
0.707107 -0.707107 -0.000000
0.707107 -0.707107 -0.000000
0.000000 -0.707107 -0.707107
-0.000000 0.707107 0.707107
0.707107 -0.000000 0.707107
-0.707107 0.000000 -0.707107
-0.707107 -0.000000 -0.707107
-0.000000 0.707107 0.707107
0.707107 -0.707107 0.000000
-0.707107 -0.000000 -0.707107
0.707107 0.000000 0.707107
-0.000000 0.707107 0.707107
-0.000000 0.707107 0.707107
0.000000 -0.707107 -0.707107
0.000000 -0.707107 -0.707107
-0.000000 0.707107 0.707107
-0.707107 0.707107 -0.000000
0.707107 -0.707107 -0.000000
-0.707107 -0.707107 0.000000
0.000000 0.707107 -0.707107
0.707107 0.000000 0.707107
-0.707107 0.707107 -0.000000
0.707107 -0.000000 -0.707107
-0.000000 -0.707107 0.707107
0.707107 -0.000000 0.707107
-0.707107 0.000000 -0.707107
-0.707107 0.000000 0.707107