# vtk DataFile Version 3.0
Configuration exported from OpenDiS
ASCII
DATASET UNSTRUCTURED_GRID
POINTS 27540 FLOAT
-29412.000000 -29412.000000 -29412.000000
29412.000000 -29412.000000 -29412.000000
-29412.000000 29412.000000 -29412.000000
-29412.000000 -29412.000000 29412.000000
29412.000000 29412.000000 -29412.000000
29412.000000 -29412.000000 29412.000000
-29412.000000 29412.000000 29412.000000
29412.000000 29412.000000 29412.000000
-9473.976037 -3291.902979 -18357.062121
-8108.876144 -3291.902979 -16991.962228
-9473.976037 -3291.902979 -18357.062121
-10593.708015 -3280.994847 -19487.702231
-9473.976037 -3291.902979 -18357.062121
-9907.154259 -2722.260621 -18220.597985
-13357.476293 -4605.846813 -4111.768606
-12963.282167 -4847.107192 -3958.834859
-13357.476293 -4605.846813 -4111.768606
-12417.312604 -4641.344529 -5087.430012
-13357.476293 -4605.846813 -4111.768606
-14088.335157 -3874.987949 -4111.768606
20293.657720 9153.639603 24885.089639
20293.657720 8711.828336 24449.323422
20293.657720 9153.639603 24885.089639
20293.657720 10386.630456 26080.046278
2321.530770 -21287.083362 5353.149821
3003.900054 -20856.002595 5604.438338
2321.530770 -21287.083362 5353.149821
951.361262 -21932.993694 4628.890645
26081.529641 -22203.894787 -2112.076175
25598.417498 -22914.770112 -3306.063643
26081.529641 -22203.894787 -2112.076175
26484.034104 -21619.941348 -1125.618273
29324.621065 -24926.887539 19966.660183
28287.649573 -25910.639887 19913.441040
29324.621065 -24926.887539 19966.660183
29411.999999 -24802.821412 19929.972990
-29411.999989 -24802.821412 19929.972990
-28894.612137 -24068.201461 19712.740903
14665.693047 11683.691371 19808.084660
13911.728743 10883.549795 19854.261932
14665.693047 11683.691371 19808.084660
15557.280642 12537.136060 19846.227566
28117.802481 -8665.120399 -22446.114621
28826.841228 -8665.120399 -23166.274670
28117.802481 -8665.120399 -22446.114621
27437.505649 -8665.120399 -21795.069900
-2580.732853 -12646.285404 8661.127445
-1686.620135 -12646.285404 7767.014727
-2580.732853 -12646.285404 8661.127445
-3471.066615 -12646.285404 9551.461206
3814.862434 25638.080578 -1014.024481
4677.836388 25638.080578 -1876.998434
3814.862434 25638.080578 -1014.024481
2959.602612 25638.080578 -157.908833
-27729.860649 -6233.582807 -6252.700370
-27317.526921 -6698.996192 -6305.780027
-27729.860649 -6233.582807 -6252.700370
-27653.211948 -5544.345588 -5486.814449
-27729.860649 -6233.582807 -6252.700370
-28804.511337 -6128.646692 -7222.414943
5245.965191 -20808.468798 930.383110
4368.013516 -20808.468798 1825.550973
5245.965191 -20808.468798 930.383110
5761.187778 -20808.468798 423.725990
-11204.279485 -25137.833636 4429.571833
-12588.234474 -24578.827867 3604.622613
-11204.279485 -25137.833636 4429.571833
-9900.460520 -25451.760898 5419.463536
-696.416692 -3409.086539 -4501.765119
-1799.490291 -3409.086539 -5604.838718
-696.416692 -3409.086539 -4501.765119
232.886906 -3409.086539 -3572.276133
12559.092316 -18391.681919 -535.767559
12531.404326 -17700.553989 -1254.583480
12559.092316 -18391.681919 -535.767559
12460.325492 -19351.503925 325.287622
22035.090718 22996.901681 -25126.880420
22726.530046 22996.901681 -25881.863300
22035.090718 22996.901681 -25126.880420
21294.609853 22996.901681 -24350.135540
-14365.789625 -27424.371922 11044.127424
-13706.417940 -27903.267280 11224.603752
-14365.789625 -27424.371922 11044.127424
-15301.559011 -26843.587532 10689.142428
23739.317944 -21363.193901 -18728.081538
23344.168242 -21899.246947 -18868.984881
23739.317944 -21363.193901 -18728.081538
24576.483788 -21188.624499 -19739.816785
23739.317944 -21363.193901 -18728.081538
24391.267410 -20570.916095 -18868.409878
23917.330134 12947.414507 11633.035149
24741.802887 12449.525442 11306.451460
23917.330134 12947.414507 11633.035149
23102.419843 13453.270791 11942.089155
-18103.551630 10736.855866 -11125.896370
-19004.323626 10264.795207 -10697.185033
-18103.551630 10736.855866 -11125.896370
-17261.428355 11207.949805 -11496.925706
-5554.850500 28859.736598 22908.624210
-6107.113898 29411.999996 22908.624210
-6107.113898 -29411.999992 22908.624210
-6352.426765 -29166.687137 22908.624210
-5554.850500 28859.736598 22908.624210
-4846.196077 28151.082175 22908.624210
6343.118618 4365.752347 -28605.456701
6025.448282 3378.707314 -27300.741332
6343.118618 4365.752347 -28605.456701
6477.929948 5037.484319 -29412.000004
6477.929948 5037.484319 29411.999985
6565.456175 5473.606154 28888.351935
16109.487366 -29144.862718 -18879.919777
15797.825382 -28164.838834 -18211.557878
16109.487366 -29144.862718 -18879.919777
16011.293850 -29412.000001 -19048.863544
16011.293850 29411.999987 -19048.863544
15640.138284 28402.264392 -19687.443584
1410.850045 18939.379018 10733.882044
2128.410626 19671.416716 10733.882044
1410.850045 18939.379018 10733.882044
442.692430 17999.739936 10733.882044
12418.646220 -11951.046848 -22631.466037
13674.971959 -13207.372587 -22631.466037
12418.646220 -11951.046848 -22631.466037
11636.193977 -11168.594605 -22631.466037
-2728.536027 4326.941231 11306.355767
-2285.180412 4075.140415 10611.199336
-2728.536027 4326.941231 11306.355767
-3665.539807 5008.041433 12924.459749
-10087.429347 -13693.762259 7656.135807
-9364.492068 -14137.425696 7935.409649
-10087.429347 -13693.762259 7656.135807
-10816.885546 -13445.653835 7174.788032
17379.775334 10904.221758 1096.464457
16618.506512 10560.870310 2201.084720
17379.775334 10904.221758 1096.464457
17668.773487 11606.348125 1509.592671
17379.775334 10904.221758 1096.464457
17536.056769 10904.221758 940.183023
-28538.951013 -1.582245 -1844.548210
-27842.399860 -7.298040 -2535.383567
-28538.951013 -1.582245 -1844.548210
-29371.459834 80.982051 -1094.603685
14380.555757 -10119.906141 -20249.583389
14115.432005 -11352.663290 -21217.216786
14380.555757 -10119.906141 -20249.583389
14517.083229 -9193.070611 -19459.275330
4718.872750 -6756.120124 12078.405259
4718.872750 -5971.596058 12862.929914
4718.872750 -6756.120124 12078.405259
4718.872750 -7655.267716 11179.257667
4678.824971 -15880.685771 3485.702381
5269.652945 -16914.644733 3928.833368
4678.824971 -15880.685771 3485.702381
4445.693092 -15443.297788 3281.446276
-16788.530965 24262.056682 -15898.418813
-17818.695649 24262.056682 -16928.583497
-16788.530965 24262.056682 -15898.418813
-15904.225616 24262.056682 -15014.113464
9658.971105 -19216.745951 -6108.196426
9722.094021 -18691.212469 -5645.785861
9658.971105 -19216.745951 -6108.196426
9601.623266 -18529.546353 -6738.048186
-6581.960720 19859.320457 -9615.198193
-7413.517385 19027.763792 -9615.198193
-6581.960720 19859.320457 -9615.198193
-5689.790828 20751.490352 -9615.198193
6113.240921 12036.323777 -20094.572861
5135.228303 10430.895775 -20721.988245
6113.240921 12036.323777 -20094.572861
6556.319471 12902.278989 -19671.696198
-2627.280916 7696.597760 -16051.996741
-3378.972365 6765.796478 -15872.886909
-2627.280916 7696.597760 -16051.996741
-1525.534005 8619.234857 -15872.886927
-27565.649312 25482.815166 -22846.621940
-28478.196944 26393.751734 -22846.621940
-27565.649312 25482.815166 -22846.621940
-26618.696697 24535.862860 -22846.621940
-15377.315088 -25890.143128 4784.709975
-15212.781788 -24876.933124 3936.033271
-15377.315088 -25890.143128 4784.709975
-15262.699936 -26676.366163 5685.548163
-9543.977804 -8564.437557 -9224.045493
-9567.119968 -9766.232977 -10402.698749
-9543.977804 -8564.437557 -9224.045493
-9837.126397 -7384.343605 -7750.802948
-14328.867734 -18799.915912 28335.296106
-15303.588245 -19780.879673 28329.052855
-14328.867734 -18799.915912 28335.296106
-13535.474078 -18008.551865 28333.266497
-7862.307604 18436.231655 20769.115030
-8336.398867 19458.890781 21317.682894
-7862.307604 18436.231655 20769.115030
-7347.519381 17311.112299 20158.783897
-16873.186484 659.285037 23581.091676
-16152.289870 -203.156514 25164.429839
-16873.186484 659.285037 23581.091676
-17724.759749 1317.665086 22071.138360
-19347.450512 -11013.360684 12464.225460
-19977.465523 -11255.504300 13336.384088
-19347.450512 -11013.360684 12464.225460
-18420.066124 -10841.781241 11365.261629
-12766.262490 -16159.526340 -13596.849592
-12867.780783 -15185.430787 -12521.235745
-12766.262490 -16159.526340 -13596.849592
-12839.599941 -16939.724662 -14303.710462
13628.067747 13986.893838 -20065.201944
12915.938640 13274.764732 -20065.201944
13628.067747 13986.893838 -20065.201944
14359.535455 14718.361547 -20065.201944
-23195.628156 -18280.774182 23579.816603
-22519.128666 -18615.116092 23237.659022
-23195.628156 -18280.774182 23579.816603
-22194.721470 -17765.011603 24064.960710
17999.092109 10589.656286 162.582211
18566.434000 9923.429256 -1070.986711
17999.092109 10589.656286 162.582211
17536.056769 10904.221758 940.183023
-6519.688831 -12681.259010 -23330.777689
-6519.688831 -11932.660004 -24079.376695
-6519.688831 -12681.259010 -23330.777689
-6519.688831 -13626.604092 -22379.049753
-18333.457656 6885.889876 -10051.254334
-17549.082690 6608.083204 -11113.435972
-18333.457656 6885.889876 -10051.254334
-18759.248401 7073.429890 -9437.923575
-17989.628775 17109.036066 -21194.498886
-18726.368631 17845.775921 -21194.498886
-17989.628775 17109.036066 -21194.498886
-17129.608054 16249.015227 -21194.498886
3176.886190 12383.572475 -9086.224580
3608.928709 13348.183234 -9618.792821
3176.886190 12383.572475 -9086.224580
2617.988424 11072.599753 -8334.149625
-2908.136601 -3409.086539 -6713.485028
-1799.490291 -3409.086539 -5604.838718
-2908.136601 -3409.086539 -6713.485028
-3741.562249 -3409.086539 -7545.670210
16735.714117 27982.926504 16778.435999
17519.437332 27863.978585 15875.764865
16735.714117 27982.926504 16778.435999
16151.510749 28051.725009 17431.437872
8948.898684 4978.563117 22404.094740
9917.996584 5120.336243 21576.769966
8948.898684 4978.563117 22404.094740
8948.898684 4096.477125 23286.164574
8948.898684 4978.563117 22404.094740
8037.217079 4949.418228 21521.558024
18013.842359 -3238.800839 11553.701085
18540.002185 -2469.248533 11797.093564
[...]
CELL_DATA 13767
VECTORS Burgers FLOAT
0.000000 0.000000 0.000000
0.707107 -0.000000 -0.707107
-0.707107 -0.707107 0.000000
-0.000000 0.707107 0.707107
0.000000 0.707107 0.707107
0.707107 0.000000 -0.707107
-0.707107 -0.707107 0.000000
0.000000 -0.707107 0.707107
0.000000 0.707107 -0.707107
-0.707107 0.000000 -0.707107
0.707107 0.000000 0.707107
-0.707107 0.707107 -0.000000
0.707107 -0.707107 0.000000
0.707107 0.000000 0.707107
-0.707107 0.000000 -0.707107
-0.707107 0.000000 -0.707107
-0.000000 0.707107 -0.707107
0.000000 -0.707107 0.707107
-0.707107 0.000000 -0.707107
0.707107 -0.000000 0.707107
-0.707107 0.000000 -0.707107
0.707107 0.000000 0.707107
-0.707107 0.000000 -0.707107
0.707107 0.000000 0.707107
-0.707107 0.707107 0.000000
-0.000000 -0.707107 -0.707107
0.707107 -0.000000 0.707107
0.707107 0.000000 0.707107
-0.707107 -0.000000 -0.707107
-0.000000 0.707107 0.707107
0.000000 -0.707107 -0.707107
0.707107 -0.000000 -0.707107
-0.707107 0.000000 0.707107
-0.707107 0.000000 -0.707107
0.707107 -0.000000 0.707107
-0.707107 0.000000 -0.707107
0.707107 0.000000 0.707107
0.707107 -0.707107 -0.000000
-0.707107 0.707107 0.000000
-0.000000 0.707107 0.707107
0.707107 -0.000000 -0.707107
-0.707107 -0.707107 -0.000000
-0.707107 0.707107 -0.000000
0.707107 -0.707107 0.000000
-0.707107 0.000000 0.707107
0.707107 -0.000000 -0.707107
-0.707107 -0.707107 -0.000000
-0.707107 -0.707107 -0.000000
0.707107 0.707107 0.000000
0.707107 -0.707107 0.000000
-0.707107 0.707107 0.000000
-0.707107 0.707107 0.000000
0.000000 -0.707107 -0.707107
0.000000 0.707107 0.707107
0.000000 0.707107 0.707107
0.707107 -0.707107 0.000000
-0.707107 0.707107 -0.000000
0.707107 0.707107 0.000000
-0.707107 -0.707107 -0.000000
-0.707107 -0.707107 0.000000
0.707107 0.707107 -0.000000
0.000000 0.707107 0.707107
-0.000000 -0.707107 -0.707107
-0.000000 -0.707107 0.707107
0.707107 0.000000 -0.707107
-0.707107 0.707107 -0.000000
0.000000 0.707107 -0.707107
-0.000000 -0.707107 0.707107
-0.707107 -0.707107 -0.000000
0.707107 0.707107 -0.000000
-0.000000 0.707107 -0.707107
-0.000000 -0.707107 0.707107
-0.707107 0.707107 -0.000000
0.707107 -0.707107 -0.000000
0.707107 -0.000000 -0.707107
-0.707107 -0.000000 0.707107
0.707107 0.000000 -0.707107
-0.707107 0.000000 0.707107
-0.707107 0.707107 -0.000000
0.707107 -0.707107 -0.000000
-0.000000 0.707107 0.707107
0.000000 -0.707107 -0.707107
0.000000 0.707107 -0.707107
-0.000000 -0.707107 0.707107
-0.707107 -0.707107 -0.000000
0.707107 0.707107 0.000000
0.707107 -0.000000 0.707107
-0.707107 0.000000 -0.707107
0.000000 0.707107 0.707107
0.000000 -0.707107 -0.707107
0.000000 0.707107 0.707107
-0.000000 -0.707107 -0.707107
0.707107 -0.707107 0.000000
-0.707107 0.707107 -0.000000
0.707107 0.000000 0.707107
-0.707107 -0.000000 -0.707107
0.707107 -0.707107 0.000000
-0.707107 0.707107 -0.000000
-0.000000 -0.707107 -0.707107
0.000000 0.707107 0.707107
0.707107 -0.707107 0.000000
-0.707107 0.707107 -0.000000
-0.000000 0.707107 -0.707107
0.000000 -0.707107 0.707107
-0.707107 0.000000 0.707107
0.707107 -0.000000 -0.707107
-0.000000 0.707107 0.707107
-0.000000 -0.707107 -0.707107
-0.707107 -0.707107 -0.000000
0.707107 0.707107 -0.000000
-0.707107 -0.707107 0.000000
0.707107 0.707107 -0.000000
-0.707107 -0.707107 -0.000000
0.707107 0.707107 0.000000
-0.707107 0.000000 0.707107
0.707107 0.000000 -0.707107
-0.000000 0.707107 0.707107
0.000000 -0.707107 -0.707107
-0.707107 -0.000000 0.707107
-0.000000 -0.707107 -0.707107
0.707107 0.707107 0.000000
-0.000000 -0.707107 -0.707107
0.000000 0.707107 0.707107
0.707107 -0.000000 -0.707107
-0.707107 -0.707107 0.000000
-0.000000 0.707107 0.707107
0.707107 0.707107 -0.000000
-0.707107 -0.707107 0.000000
-0.707107 -0.000000 0.707107
0.707107 -0.000000 -0.707107
-0.707107 -0.000000 0.707107
0.707107 0.000000 -0.707107
-0.000000 0.707107 -0.707107
0.000000 -0.707107 0.707107
-0.707107 -0.707107 0.000000
0.707107 0.707107 0.000000
0.707107 0.000000 0.707107
-0.707107 -0.000000 -0.707107
0.707107 0.000000 -0.707107
-0.707107 0.000000 0.707107
-0.707107 0.000000 -0.707107
0.707107 -0.000000 0.707107
0.707107 -0.707107 0.000000
-0.707107 0.707107 0.000000
0.707107 0.000000 -0.707107
-0.707107 -0.000000 0.707107
-0.000000 0.707107 -0.707107
0.000000 -0.707107 0.707107
-0.707107 -0.707107 -0.000000
0.707107 0.707107 0.000000
0.000000 -0.707107 -0.707107
-0.000000 0.707107 0.707107
0.707107 -0.000000 0.707107
-0.707107 -0.000000 -0.707107
0.707107 0.000000 -0.707107
-0.707107 -0.707107 -0.000000
-0.000000 0.707107 0.707107
0.707107 -0.707107 0.000000
-0.707107 0.707107 -0.000000
-0.707107 0.707107 -0.000000
0.000000 -0.707107 -0.707107
0.707107 -0.000000 0.707107
-0.707107 0.707107 -0.000000
0.707107 0.707107 -0.000000
-0.707107 -0.707107 0.000000
-0.707107 0.000000 0.707107
0.707107 0.000000 -0.707107
0.707107 -0.707107 0.000000
-0.707107 0.707107 -0.000000
-0.707107 0.707107 -0.000000
0.707107 -0.707107 0.000000
-0.707107 0.707107 -0.000000
0.707107 -0.707107 0.000000
-0.707107 -0.000000 -0.707107
0.707107 -0.000000 0.707107
0.707107 0.707107 0.000000
-0.707107 -0.707107 -0.000000
0.707107 -0.000000 -0.707107
-0.707107 -0.000000 0.707107
0.707107 -0.000000 -0.707107
-0.707107 -0.707107 0.000000
0.000000 0.707107 0.707107
-0.707107 0.000000 -0.707107
0.707107 -0.000000 0.707107
0.000000 0.707107 0.707107
0.707107 0.000000 -0.707107
-0.707107 -0.707107 -0.000000
-0.707107 -0.000000 0.707107
0.707107 0.000000 -0.707107
-0.707107 0.000000 0.707107
0.707107 -0.000000 -0.707107
-0.707107 -0.707107 -0.000000
0.707107 0.707107 -0.000000
-0.707107 0.707107 0.000000
0.707107 -0.707107 0.000000
0.707107 -0.000000 0.707107
-0.707107 0.000000 -0.707107
-0.707107 -0.707107 -0.000000
0.707107 0.707107 -0.000000
0.707107 -0.000000 -0.707107
0.707107 0.000000 0.707107
-0.707107 0.000000 0.707107
0.707107 0.000000 0.707107
-0.707107 -0.000000 -0.707107
0.707107 -0.707107 0.000000
-0.707107 0.707107 -0.000000
0.707107 -0.707107 0.000000
0.000000 0.707107 -0.707107
-0.707107 -0.707107 -0.000000
-0.000000 0.707107 0.707107
-0.707107 -0.707107 0.000000
0.707107 0.707107 0.000000
-0.707107 0.000000 0.707107
0.707107 -0.000000 -0.707107
0.707107 0.000000 -0.707107
-0.707107 -0.000000 0.707107
-0.000000 0.707107 -0.707107
-0.000000 -0.707107 0.707107
-0.707107 0.000000 0.707107
0.707107 -0.000000 -0.707107
-0.707107 -0.000000 -0.707107
0.707107 0.000000 0.707107
-0.707107 0.000000 0.707107
0.707107 0.000000 0.707107
-0.707107 -0.000000 -0.707107
0.707107 -0.000000 -0.707107
0.000000 -0.707107 0.707107
-0.000000 0.707107 -0.707107
-0.000000 0.707107 -0.707107
0.707107 -0.000000 0.707107
-0.707107 -0.000000 -0.707107
0.707107 0.000000 0.707107
-0.707107 -0.000000 -0.707107
0.707107 0.000000 -0.707107
-0.707107 0.000000 0.707107
-0.707107 -0.707107 -0.000000
0.707107 0.707107 -0.000000
-0.707107 0.000000 0.707107
0.707107 -0.000000 -0.707107
0.707107 0.000000 0.707107
-0.707107 -0.000000 -0.707107
0.707107 0.707107 -0.000000
-0.707107 -0.707107 -0.000000
0.707107 -0.707107 0.000000
-0.707107 0.707107 0.000000
-0.707107 -0.000000 0.707107
0.707107 0.000000 -0.707107
1.414214 0.000000 0.000000
-1.414214 -0.000000 -0.000000
0.707107 0.707107 0.000000
-0.707107 -0.707107 -0.000000
-0.707107 0.000000 -0.707107
0.707107 0.000000 0.707107
0.707107 -0.707107 -0.000000
-0.707107 0.707107 -0.000000
0.707107 -0.000000 0.707107
-0.707107 -0.000000 -0.707107
-0.707107 -0.707107 0.000000
0.707107 0.707107 -0.000000
-0.707107 -0.707107 0.000000
0.707107 0.707107 -0.000000
-0.707107 0.000000 0.707107
0.707107 -0.000000 -0.707107
-0.707107 -0.000000 -0.707107
0.707107 0.000000 0.707107
0.000000 0.707107 -0.707107
-0.000000 -0.707107 0.707107
0.707107 0.707107 0.000000
-0.707107 -0.707107 0.000000
-0.707107 0.000000 -0.707107
-0.707107 -0.000000 -0.707107
0.707107 -0.000000 -0.707107
0.707107 0.000000 0.707107
-0.707107 0.000000 0.707107
-0.000000 0.707107 -0.707107
0.000000 -0.707107 0.707107
-0.707107 -0.707107 -0.000000
0.707107 0.707107 -0.000000
-0.707107 0.707107 0.000000
0.707107 -0.707107 -0.000000
0.707107 -0.707107 -0.000000
-0.707107 0.707107 0.000000
-0.707107 -0.707107 -0.000000
0.707107 0.707107 0.000000
0.000000 0.707107 0.707107
-0.000000 -0.707107 -0.707107
-0.707107 -0.707107 -0.000000
0.707107 0.707107 -0.000000
0.000000 -0.707107 0.707107
0.000000 0.707107 -0.707107
0.707107 0.000000 0.707107
-0.707107 -0.000000 -0.707107
-0.000000 -0.707107 -0.707107
-0.000000 0.707107 0.707107
0.707107 -0.000000 0.707107
-0.707107 0.000000 -0.707107
0.707107 0.707107 -0.000000
-0.707107 -0.707107 0.000000
0.707107 0.707107 -0.000000
-0.707107 -0.707107 -0.000000
0.707107 -0.707107 -0.000000
-0.707107 0.707107 0.000000
0.000000 0.707107 -0.707107
-0.707107 -0.707107 0.000000
0.707107 0.000000 0.707107
-0.707107 0.000000 0.707107
0.707107 -0.707107 -0.000000
0.000000 0.707107 -0.707107
0.707107 -0.000000 0.707107
-0.707107 0.000000 -0.707107
0.000000 0.707107 0.707107
0.000000 -0.707107 -0.707107
-0.707107 -0.707107 -0.000000
0.707107 0.000000 0.707107
0.000000 0.707107 -0.707107
0.707107 -0.707107 0.000000
-0.707107 0.707107 -0.000000
-0.707107 0.707107 -0.000000
-0.000000 0.707107 -0.707107
-0.000000 -0.707107 0.707107
0.000000 -0.707107 0.707107
0.707107 0.000000 -0.707107
-0.707107 0.707107 0.000000
-0.000000 -0.707107 -0.707107
-0.000000 0.707107 0.707107
0.707107 0.707107 0.000000
-0.707107 -0.707107 0.000000
-0.707107 0.000000 -0.707107
0.707107 0.707107 0.000000
0.000000 -0.707107 0.707107
-0.000000 -0.707107 -0.707107
0.000000 0.707107 0.707107
-0.000000 -0.707107 -0.707107
0.000000 0.707107 0.707107
0.707107 0.000000 -0.707107
-0.707107 -0.000000 0.707107
0.707107 -0.000000 0.707107
-0.707107 0.000000 -0.707107
0.000000 0.707107 0.707107
-0.000000 -0.707107 -0.707107
0.707107 -0.707107 0.000000
-0.707107 0.707107 0.000000
-0.707107 0.000000 -0.707107
0.707107 0.000000 0.707107
0.707107 -0.707107 0.000000
-0.707107 0.707107 -0.000000
0.000000 0.707107 0.707107
-0.000000 -0.707107 -0.707107
0.707107 0.000000 -0.707107
-0.707107 0.000000 0.707107
0.000000 0.707107 0.707107
-0.000000 -0.707107 -0.707107
-0.707107 -0.707107 -0.000000
0.707107 0.707107 -0.000000
-0.000000 0.707107 0.707107
-0.000000 -0.707107 -0.707107
-0.707107 0.707107 -0.000000
0.707107 -0.707107 0.000000
0.000000 -0.707107 -0.707107
-0.000000 0.707107 0.707107
0.707107 0.000000 -0.707107
-0.707107 -0.000000 0.707107
-0.707107 0.000000 0.707107
0.707107 -0.000000 -0.707107
0.707107 0.707107 0.000000
-0.707107 -0.707107 -0.000000
-0.000000 0.707107 -0.707107
-0.000000 0.707107 -0.707107
0.000000 -0.707107 0.707107
0.000000 -0.707107 -0.707107
0.000000 0.707107 0.707107
-0.707107 0.000000 -0.707107
0.707107 -0.000000 0.707107
-0.707107 -0.000000 -0.707107
0.707107 -0.000000 0.707107
-0.000000 0.707107 -0.707107
-0.707107 -0.707107 -0.000000
0.707107 0.000000 0.707107
0.707107 -0.707107 0.000000
-0.707107 0.707107 -0.000000
0.707107 0.000000 0.707107
-0.707107 0.000000 -0.707107
0.707107 -0.707107 0.000000
-0.707107 0.707107 0.000000
-0.707107 0.707107 0.000000
0.707107 -0.707107 0.000000
-0.707107 0.707107 -0.000000
0.707107 -0.707107 0.000000
-0.707107 -0.000000 -0.707107
0.707107 0.000000 0.707107
0.707107 -0.707107 -0.000000
-0.707107 0.707107 0.000000
-0.000000 -0.707107 -0.707107
0.000000 0.707107 0.707107
0.707107 -0.707107 -0.000000
-0.707107 0.707107 0.000000
0.707107 -0.707107 0.000000
-0.707107 0.707107 -0.000000
0.000000 -0.707107 -0.707107
-0.000000 0.707107 0.707107
0.707107 -0.707107 -0.000000
-0.707107 0.707107 0.000000
0.707107 0.707107 0.000000
-0.707107 -0.707107 -0.000000
-0.000000 -0.707107 -0.707107
-0.000000 0.707107 0.707107
-0.707107 -0.707107 0.000000
0.707107 0.707107 -0.000000
-0.707107 0.707107 0.000000
0.707107 -0.707107 -0.000000
-0.000000 0.707107 0.707107
0.000000 -0.707107 -0.707107
0.000000 0.707107 -0.707107
-0.000000 -0.707107 0.707107
0.707107 0.000000 0.707107
-0.707107 -0.000000 -0.707107
0.707107 0.707107 -0.000000
-0.707107 -0.707107 0.000000
0.000000 0.707107 0.707107
-0.000000 -0.707107 -0.707107
-0.707107 -0.707107 0.000000
0.707107 0.707107 -0.000000
0.707107 -0.707107 0.000000
-0.707107 0.707107 -0.000000
-0.000000 0.707107 0.707107
0.000000 -0.707107 -0.707107
-0.707107 -0.707107 0.000000
0.707107 0.707107 -0.000000
0.707107 -0.000000 0.707107
-0.707107 0.000000 -0.707107
0.707107 0.000000 0.707107
-0.000000 0.707107 -0.707107
-0.707107 -0.707107 0.000000
0.707107 -0.707107 0.000000
-0.707107 0.707107 -0.000000
0.707107 -0.707107 -0.000000
-0.707107 0.707107 0.000000
-0.707107 -0.707107 0.000000
0.707107 0.707107 -0.000000
0.707107 -0.707107 -0.000000
-0.707107 0.707107 0.000000
0.707107 0.707107 -0.000000
-0.707107 -0.707107 0.000000
0.707107 -0.707107 -0.000000
-0.707107 0.707107 0.000000
-0.000000 0.707107 -0.707107
0.000000 -0.707107 0.707107
0.707107 0.000000 0.707107
-0.707107 -0.000000 -0.707107
-0.000000 -0.707107 -0.707107
0.000000 0.707107 0.707107
0.707107 0.707107 -0.000000
-0.707107 -0.707107 0.000000
-0.707107 0.707107 0.000000
0.707107 -0.707107 -0.000000
-0.707107 0.707107 0.000000
0.707107 -0.707107 -0.000000
0.707107 -0.000000 0.707107
-0.707107 0.000000 -0.707107
-0.707107 -0.707107 0.000000
0.707107 0.707107 -0.000000
0.000000 0.707107 -0.707107
-0.000000 -0.707107 0.707107
0.000000 0.707107 -0.707107
0.000000 -0.707107 0.707107
-0.707107 0.000000 0.707107
-0.000000 -0.707107 -0.707107
0.707107 0.707107 0.000000
0.707107 -0.000000 0.707107
-0.707107 0.000000 -0.707107
-0.000000 -0.707107 0.707107
0.000000 0.707107 -0.707107
0.000000 -0.707107 0.707107
-0.000000 0.707107 -0.707107
-0.000000 -0.707107 -0.707107
0.000000 0.707107 0.707107
-0.000000 0.707107 0.707107
-0.000000 -0.707107 -0.707107
-0.707107 0.000000 -0.707107
0.707107 -0.000000 0.707107
0.000000 0.707107 -0.707107
-0.000000 -0.707107 0.707107
0.707107 0.000000 0.707107
-0.707107 0.000000 -0.707107
-0.707107 -0.000000 -0.707107
0.707107 -0.000000 0.707107
0.000000 -0.707107 0.707107
-0.000000 0.707107 -0.707107
-0.000000 0.707107 0.707107
-0.000000 -0.707107 -0.707107
0.000000 -0.707107 -0.707107
-0.000000 0.707107 0.707107
-0.707107 0.707107 0.000000
0.000000 -0.707107 0.707107
0.707107 0.000000 -0.707107
-0.000000 -0.707107 -0.707107
0.000000 0.707107 0.707107
0.000000 0.707107 0.707107
0.707107 0.707107 0.000000
-0.707107 -0.707107 -0.000000
0.000000 0.707107 -0.707107
-0.000000 -0.707107 0.707107
-0.707107 -0.707107 0.000000
0.707107 0.707107 -0.000000
0.707107 0.707107 0.000000
-0.707107 -0.707107 -0.000000
0.707107 0.707107 -0.000000
-0.707107 -0.707107 -0.000000
0.000000 -0.707107 0.707107
0.000000 0.707107 -0.707107
0.000000 -0.707107 0.707107
0.000000 0.707107 -0.707107
-0.000000 0.707107 -0.707107
0.000000 -0.707107 0.707107
0.707107 -0.000000 -0.707107
-0.707107 -0.000000 0.707107
-0.000000 -0.707107 -0.707107
0.000000 0.707107 0.707107
0.000000 0.707107 0.707107
0.000000 -0.707107 -0.707107
-0.707107 0.707107 0.000000
0.707107 -0.707107 -0.000000
0.000000 -0.707107 -0.707107
-0.000000 0.707107 0.707107
-0.707107 -0.000000 -0.707107
0.707107 -0.000000 0.707107
-0.000000 0.707107 -0.707107
-0.707107 -0.707107 0.000000
0.707107 0.707107 -0.000000
-0.707107 0.000000 -0.707107
0.707107 -0.000000 0.707107
-0.707107 -0.000000 0.707107
0.707107 0.000000 -0.707107
-0.000000 -0.707107 -0.707107
0.000000 0.707107 0.707107
-0.000000 0.707107 0.707107
-0.000000 -0.707107 -0.707107
0.000000 0.707107 -0.707107
-0.000000 -0.707107 0.707107
0.707107 0.000000 0.707107
-0.707107 -0.000000 -0.707107
-0.707107 0.000000 -0.707107
0.707107 0.000000 0.707107
0.707107 -0.707107 -0.000000
0.707107 -0.707107 -0.000000
-0.707107 0.707107 0.000000
0.000000 -0.707107 -0.707107
-0.000000 0.707107 0.707107
-0.000000 0.707107 -0.707107
0.000000 -0.707107 0.707107
0.707107 0.707107 -0.000000
-0.707107 -0.707107 0.000000
-0.000000 -0.707107 -0.707107
0.000000 0.707107 0.707107
0.707107 0.000000 0.707107
-0.707107 -0.000000 -0.707107
-0.000000 0.707107 0.707107
-0.000000 0.707107 0.707107
0.000000 -0.707107 -0.707107
-0.707107 0.000000 0.707107
0.707107 -0.000000 -0.707107
-0.707107 -0.707107 0.000000
0.707107 0.707107 -0.000000
0.707107 -0.000000 -0.707107
-0.707107 0.000000 0.707107
0.707107 -0.707107 -0.000000
-0.707107 0.707107 -0.000000
-0.707107 0.000000 -0.707107
0.000000 -0.707107 0.707107
0.707107 0.707107 -0.000000
-0.000000 0.707107 0.707107
0.000000 -0.707107 -0.707107
0.000000 -0.707107 0.707107
-0.707107 0.000000 -0.707107
0.707107 0.707107 0.000000
-0.707107 0.000000 -0.707107
0.707107 -0.000000 0.707107
-0.707107 0.707107 0.000000
0.707107 -0.707107 0.000000
0.000000 0.707107 0.707107
-0.000000 -0.707107 -0.707107
0.707107 -0.000000 -0.707107
-0.707107 0.000000 0.707107
-0.707107 0.707107 0.000000
0.707107 -0.707107 -0.000000
0.000000 0.707107 -0.707107
-0.000000 -0.707107 0.707107
0.000000 0.707107 0.707107
-0.707107 -0.000000 -0.707107
0.707107 -0.707107 0.000000
0.707107 0.000000 0.707107
-0.707107 -0.000000 -0.707107
0.707107 0.707107 -0.000000
0.000000 -0.707107 0.707107
-0.707107 0.000000 -0.707107
-0.000000 -0.707107 -0.707107
-0.000000 0.707107 0.707107
0.707107 0.000000 0.707107
-0.707107 -0.000000 -0.707107
0.707107 0.707107 -0.000000
-0.707107 -0.707107 -0.000000
-0.707107 0.000000 -0.707107
0.707107 -0.000000 0.707107
0.707107 -0.000000 -0.707107
-0.707107 0.000000 0.707107
0.707107 0.707107 -0.000000
-0.707107 -0.707107 0.000000
0.707107 -0.707107 0.000000
-0.707107 0.707107 -0.000000
0.000000 -0.707107 0.707107
-0.000000 0.707107 -0.707107
0.000000 0.707107 -0.707107
-0.000000 -0.707107 0.707107
0.707107 0.000000 0.707107
-0.707107 -0.000000 -0.707107
0.707107 -0.707107 0.000000
-0.707107 0.707107 -0.000000
0.000000 -0.707107 -0.707107
0.000000 0.707107 0.707107
0.707107 0.000000 0.707107
-0.707107 0.000000 -0.707107
-0.707107 0.707107 0.000000
0.707107 -0.707107 -0.000000
-0.000000 -0.707107 0.707107
0.707107 0.707107 0.000000
-0.707107 -0.000000 0.707107
0.707107 0.000000 -0.707107
0.707107 -0.000000 -0.707107
-0.707107 0.000000 0.707107
-0.707107 0.707107 0.000000
0.707107 -0.707107 -0.000000
-0.000000 -0.707107 0.707107
0.000000 0.707107 -0.707107
0.707107 0.000000 0.707107
-0.707107 -0.000000 -0.707107
0.000000 0.707107 0.707107
-0.000000 -0.707107 -0.707107
0.707107 0.707107 0.000000
-0.707107 0.000000 0.707107
0.000000 -0.707107 -0.707107
-0.707107 -0.000000 0.707107
0.707107 0.000000 -0.707107
-0.000000 -0.707107 0.707107
-0.000000 0.707107 -0.707107
-0.707107 0.000000 0.707107
0.707107 -0.000000 -0.707107
-0.707107 -0.000000 -0.707107
0.707107 -0.000000 0.707107
0.707107 -0.000000 0.707107
0.707107 -0.000000 0.707107
-0.707107 0.000000 -0.707107
-0.707107 -0.707107 -0.000000
0.707107 0.707107 -0.000000
-0.707107 -0.000000 -0.707107
0.707107 0.000000 0.707107
0.707107 0.000000 0.707107
-0.707107 -0.000000 -0.707107
-0.707107 -0.000000 0.707107
0.707107 0.000000 -0.707107
0.000000 0.707107 -0.707107
-0.000000 -0.707107 0.707107
-0.000000 -0.707107 -0.707107
-0.707107 0.000000 0.707107
0.707107 0.707107 0.000000
0.000000 -0.707107 0.707107
-0.000000 0.707107 -0.707107
0.707107 -0.707107 0.000000
0.707107 -0.707107 0.000000
-0.707107 0.000000 -0.707107
0.000000 0.707107 0.707107
0.707107 -0.000000 0.707107
-0.707107 0.000000 -0.707107
-0.000000 -0.707107 0.707107
-0.000000 0.707107 -0.707107
0.000000 -0.707107 -0.707107
0.000000 0.707107 0.707107
0.000000 -0.707107 -0.707107
-0.000000 0.707107 0.707107
-0.000000 0.707107 0.707107
-0.000000 -0.707107 -0.707107
-0.707107 -0.707107 0.000000
0.707107 -0.000000 0.707107
0.000000 0.707107 -0.707107
0.707107 -0.000000 0.707107
-0.707107 0.000000 -0.707107
0.000000 -0.707107 -0.707107
-0.000000 0.707107 0.707107
0.707107 -0.707107 0.000000
-0.707107 0.707107 0.000000
-0.000000 -0.707107 -0.707107
0.707107 0.000000 0.707107
-0.707107 0.707107 0.000000
0.707107 -0.000000 -0.707107
-0.707107 -0.000000 0.707107
-0.707107 -0.000000 0.707107
0.707107 0.000000 -0.707107
0.707107 -0.707107 0.000000
-0.707107 0.000000 -0.707107
0.707107 -0.000000 0.707107
0.707107 -0.707107 0.000000