# vtk DataFile Version 3.0
Configuration exported from OpenDiS
ASCII
DATASET UNSTRUCTURED_GRID
POINTS 40516 FLOAT
-29412.000000 -29412.000000 -29412.000000
29412.000000 -29412.000000 -29412.000000
-29412.000000 29412.000000 -29412.000000
-29412.000000 -29412.000000 29412.000000
29412.000000 29412.000000 -29412.000000
29412.000000 -29412.000000 29412.000000
-29412.000000 29412.000000 29412.000000
29412.000000 29412.000000 29412.000000
-26248.653993 22091.602002 27916.227960
-27667.970910 21291.541350 28535.484224
-26248.653993 22091.602002 27916.227960
-24700.942350 22733.561400 27010.475714
7724.630511 21877.109778 8113.256417
7724.630511 21596.179019 7846.485041
7724.630511 21877.109778 8113.256417
7724.630511 23186.875571 9412.305421
-27819.178211 -25427.522033 25945.054312
-28212.113517 -25348.541989 25631.095604
-27819.178211 -25427.522033 25945.054312
-27819.178211 -25322.364141 26050.212204
-27819.178211 -25427.522033 25945.054312
-28789.309452 -26234.286846 26108.420740
-25703.371922 19035.098718 -15405.019213
-25703.371922 19674.684423 -16029.976390
-25703.371922 19035.098718 -15405.019213
-25703.371922 17763.664967 -14094.146233
-21053.035640 -16426.003165 12199.050509
-20765.061004 -16598.438314 11738.640724
-21053.035640 -16426.003165 12199.050509
-21312.417488 -16133.901033 11647.566529
-21053.035640 -16426.003165 12199.050509
-20770.928296 -16102.741282 12199.050509
27887.564636 -20303.890139 -20286.940947
27307.589685 -20451.342431 -21014.368191
27887.564636 -20303.890139 -20286.940947
28531.279250 -20082.770855 -19422.107049
21438.987059 20351.347355 21679.880925
21831.925811 19574.871950 21296.344272
21438.987059 20351.347355 21679.880925
21438.987059 21111.529947 22440.063517
21438.987059 20351.347355 21679.880925
20941.223263 20131.585576 21957.882943
-17441.845130 -26859.489602 -28825.526972
-18273.109374 -25472.900093 -28270.201707
-17441.845130 -26859.489602 -28825.526972
-17010.822005 -27876.985760 -29412.000005
-17010.822005 -27876.985760 29411.999983
-16940.829737 -28042.213237 29316.764785
-2567.143526 -12646.285404 8647.529862
-1591.701526 -12646.285404 7668.106103
-2567.143526 -12646.285404 8647.529862
-3367.490097 -12646.285404 9447.051747
17068.089705 23054.826486 -9506.139689
16425.499816 23790.418905 -9413.137159
17068.089705 23054.826486 -9506.139689
17331.838993 22755.401021 -9541.815865
-23608.614463 620.986152 -17295.678919
-23608.615531 1400.590511 -18075.277955
-23608.614463 620.986152 -17295.678919
-23608.613396 -158.510201 -16516.187889
43.994047 25031.121927 -447.976300
977.899360 25124.723993 392.326946
43.994047 25031.121927 -447.976300
-910.714387 24835.152454 -1206.715261
15387.558295 19497.578126 13612.663996
15031.956829 19272.170124 14193.673464
15387.558295 19497.578126 13612.663996
15698.298211 19950.906698 12848.595508
27866.511840 -23598.893446 -20496.193599
27029.152251 -24475.228918 -20535.169482
27866.511840 -23598.893446 -20496.193599
28242.867754 -22439.793298 -19713.449365
8290.644200 -6543.480800 -19670.993149
8755.654121 -7650.034202 -20312.536630
8290.644200 -6543.480800 -19670.993149
7696.546541 -5034.192623 -18755.802631
29141.725597 -8942.509067 -3172.728000
29411.999997 -9234.167977 -3194.112509
-29411.999991 -9234.167977 -3194.112509
-29084.288985 -9587.807973 -3220.041488
29141.725597 -8942.509067 -3172.728000
28334.391643 -8089.810163 -3127.363049
25356.979024 16305.469499 7810.582416
24814.252421 17048.980463 8011.366777
25356.979024 16305.469499 7810.582416
26053.497943 15358.081271 7559.713107
-11050.812349 28710.102275 26897.516436
-11919.604440 27241.637816 26297.844068
-11050.812349 28710.102275 26897.516436
-10784.138316 29411.999997 27332.740126
-10784.138316 -29411.999991 27332.740126
-10514.818306 -28703.137952 27772.282166
10199.954686 17900.537281 11951.465906
11667.767531 18558.481931 11141.597710
10199.954686 17900.537281 11951.465906
9331.456775 17596.748792 12516.175559
17003.637937 25906.479436 -438.074867
16233.340929 26676.776444 -438.074867
17003.637937 25906.479436 -438.074867
17780.408815 25129.708557 -438.074867
-8882.214427 -14315.977876 -11313.968945
-8970.040840 -13509.875567 -10595.693049
-8882.214427 -14315.977876 -11313.968945
-8954.643412 -15115.586625 -12186.006679
27080.016317 -14455.788857 22819.418438
25972.432495 -14941.197553 23441.593564
27080.016317 -14455.788857 22819.418438
26803.916224 -14987.952449 22011.154754
27080.016317 -14455.788857 22819.418438
26733.150782 -14524.092134 23097.980696
6647.222171 -5192.815132 -4282.626644
7084.354221 -6328.782371 -3583.791455
6647.222171 -5192.815132 -4282.626644
6274.255102 -4173.929762 -4928.544952
28548.867511 -10526.310273 27972.502910
28956.050879 -11515.507828 29368.883833
28548.867511 -10526.310273 27972.502910
28464.637895 -10284.708559 27646.671580
-11854.993736 -19639.840101 6565.378061
-11093.452216 -20401.381620 6565.378061
-11854.993736 -19639.840101 6565.378061
-12564.232338 -18930.601499 6565.378061
20890.789361 -20809.991901 10298.494916
19751.740100 -21273.294420 10974.241657
20890.789361 -20809.991901 10298.494916
21511.688380 -20579.374216 9908.213581
12423.703582 -11062.722714 -4628.730162
12808.061759 -11853.867169 -5804.232793
12423.703582 -11062.722714 -4628.730162
12693.412207 -10316.805239 -4152.521311
12423.703582 -11062.722714 -4628.730162
12699.520349 -11199.810757 -4490.001437
27194.754295 20910.642853 24685.100254
28055.920603 20910.642853 25589.724979
27194.754295 20910.642853 24685.100254
27960.971828 21693.309353 24701.549221
-9844.585258 27306.990188 -27240.402955
-10047.137843 27644.361580 -27375.221762
-9844.585258 27306.990188 -27240.402955
-9036.499589 26018.443891 -26759.941761
21855.411124 2851.904011 5447.604151
22520.080314 2851.591753 6112.585598
21855.411124 2851.904011 5447.604151
21245.014251 2851.904011 4837.207277
21855.411124 2851.904011 5447.604151
21468.182256 1995.654375 5916.624919
-20626.084423 -22318.502934 928.478845
-21405.250071 -21404.182563 1063.633568
-20626.084423 -22318.502934 928.478845
-19811.094915 -22912.030061 1149.941226
22303.297471 -11390.063176 -4037.699502
21436.560331 -11055.310169 -4569.683636
22303.297471 -11390.063176 -4037.699502
23213.149306 -11724.807157 -3462.591648
-10470.978107 -12603.510379 27890.200079
-9921.504588 -11648.906781 27485.069938
-10470.978107 -12603.510379 27890.200079
-10631.108615 -13434.261316 28560.820641
-9311.191953 -9901.086656 17415.977687
-9741.894514 -10842.005419 17926.193889
-9311.191953 -9901.086656 17415.977687
-8826.999794 -9014.925138 17014.008328
23067.135725 -18331.184262 7561.234648
23269.926861 -19154.370047 8181.629296
23067.135725 -18331.184262 7561.234648
22964.826235 -17502.599175 6834.959049
-15660.983195 -5629.509987 -23247.023859
-15901.231767 -6409.644382 -22707.138036
-15660.983195 -5629.509987 -23247.023859
-15675.587016 -5090.933812 -23800.203856
-17128.824319 -22111.358626 -11807.257695
-16395.981760 -22111.358626 -12540.087444
-17128.824319 -22111.358626 -11807.257695
-18220.936114 -22111.381647 -10720.664192
6998.005054 11276.014575 -2546.625142
8245.419594 11842.363327 -3227.690930
6998.005054 11276.014575 -2546.625142
6969.574707 11289.745951 -2504.467560
6998.005054 11276.014575 -2546.625142
7250.839997 10242.712740 -1766.158249
-4571.163825 -7320.283000 -10874.250289
-4775.073231 -7928.744187 -10061.879696
-4571.163825 -7320.283000 -10874.250289
-4361.131133 -6878.537067 -11526.028913
-11496.203841 -19045.221192 -15065.617272
-11425.896866 -19079.493890 -15029.582997
-11496.203841 -19045.221192 -15065.617272
-12477.282663 -18220.564907 -15222.039810
-11496.203841 -19045.221192 -15065.617272
-11455.193352 -19301.921021 -15281.306612
-19456.400713 3578.430429 -20164.367267
-20551.340176 3551.848193 -21232.721305
-19456.400713 3578.430429 -20164.367267
-18491.830559 3439.499320 -19060.869030
-8893.195884 13737.938744 -9818.435065
-9771.563456 13737.639173 -8939.767922
-8893.195884 13737.938744 -9818.435065
-8871.330576 13892.114829 -9994.476458
-8893.195884 13737.938744 -9818.435065
-8544.449396 13228.278182 -10676.842114
25230.879798 21796.240339 25608.963587
23777.843580 22058.469887 24418.156918
25230.879798 21796.240339 25608.963587
26155.718836 21417.431804 26154.994091
-21550.687766 -3394.681447 7048.783477
-22697.787384 -2713.783846 7514.985494
-21550.687766 -3394.681447 7048.783477
-21217.868658 -3585.692255 6906.975176
-3497.577977 27435.151783 -27324.404990
-4507.358028 27313.016742 -26436.759979
-3497.577977 27435.151783 -27324.404990
-2496.826315 27429.559138 -28330.749297
-17288.720243 -18591.750549 -14960.785222
-18096.820507 -18559.115138 -14120.047969
-17288.720243 -18591.750549 -14960.785222
-16375.880882 -18748.918967 -16030.792999
-27845.749253 29087.584772 12455.859096
-28594.479796 29087.584772 13186.666798
-27845.749253 29087.584772 12455.859096
-27069.197316 29087.584772 11697.203759
-14679.121240 25714.704541 -17863.308969
-15571.835419 25518.407395 -17166.891935
-14679.121240 25714.704541 -17863.308969
-13602.362976 25736.928798 -18917.842976
-6519.688831 -12402.134479 -23610.627405
-6519.688831 -11910.224080 -24106.943775
-6519.688831 -12402.134479 -23610.627405
-6519.688831 -13142.861809 -22833.199029
-1942.747990 21661.285410 17030.408234
-2645.142206 21069.417028 18324.670833
-1942.747990 21661.285410 17030.408234
-1420.876931 22398.342012 15771.480574
-13003.967263 148.968428 21663.982289
-12862.485301 1260.191459 20411.277297
-13003.967263 148.968428 21663.982289
-13418.965561 -851.380468 23079.329484
9898.253652 14133.359288 18440.429664
10238.430276 13793.182691 18440.429664
9898.253652 14133.359288 18440.429664
9617.413788 14414.199129 18440.429664
-16031.756960 -21854.124800 -26303.923637
-16136.590006 -21035.136441 -25380.102232
-16031.756960 -21854.124800 -26303.923637
-16034.250051 -22414.418405 -26866.710334
-2473.225789 -28361.171506 21999.891676
-3173.870153 -27274.465130 22385.953688
-2473.225789 -28361.171506 21999.891676
-1840.527060 -29254.454825 21739.307085
[...]
CELL_DATA 20255
VECTORS Burgers FLOAT
0.000000 0.000000 0.000000
0.707107 0.000000 -0.707107
-0.707107 -0.000000 0.707107
0.000000 0.707107 -0.707107
-0.000000 -0.707107 0.707107
0.707107 -0.707107 0.000000
-0.707107 0.000000 -0.707107
-0.000000 0.707107 0.707107
0.000000 0.707107 0.707107
-0.000000 -0.707107 -0.707107
-0.707107 0.000000 0.707107
-0.000000 0.707107 -0.707107
0.707107 -0.707107 -0.000000
0.707107 0.000000 0.707107
-0.707107 -0.000000 -0.707107
0.707107 -0.707107 -0.000000
0.000000 0.707107 -0.707107
-0.707107 -0.000000 0.707107
0.000000 -0.707107 -0.707107
-0.000000 0.707107 0.707107
-0.000000 0.707107 0.707107
-0.707107 0.000000 -0.707107
0.707107 0.000000 0.707107
-0.000000 -0.707107 -0.707107
0.000000 0.707107 0.707107
-0.000000 0.707107 0.707107
0.000000 -0.707107 -0.707107
0.707107 -0.000000 0.707107
-0.707107 0.000000 -0.707107
-0.707107 -0.000000 0.707107
0.707107 0.000000 -0.707107
-0.707107 0.000000 0.707107
0.707107 -0.000000 -0.707107
-0.707107 0.707107 0.000000
0.707107 -0.707107 -0.000000
-0.707107 0.000000 -0.707107
-0.707107 0.000000 -0.707107
0.707107 -0.000000 0.707107
0.707107 -0.707107 -0.000000
-0.707107 0.707107 -0.000000
0.000000 0.707107 0.707107
-0.000000 -0.707107 -0.707107
-0.000000 -0.707107 -0.707107
0.707107 -0.000000 -0.707107
-0.707107 0.000000 0.707107
-0.707107 -0.707107 0.000000
0.707107 0.707107 -0.000000
-0.707107 0.000000 -0.707107
0.707107 -0.000000 0.707107
0.707107 0.707107 0.000000
-0.000000 -0.707107 -0.707107
-0.707107 -0.000000 0.707107
-0.707107 0.707107 -0.000000
0.707107 -0.707107 0.000000
-0.707107 -0.707107 -0.000000
0.707107 0.707107 0.000000
0.707107 0.707107 0.000000
-0.707107 -0.707107 -0.000000
0.707107 0.707107 0.000000
-0.707107 -0.707107 -0.000000
-0.707107 -0.707107 -0.000000
0.707107 -0.000000 -0.707107
0.000000 0.707107 0.707107
-0.707107 -0.000000 0.707107
0.707107 -0.000000 -0.707107
0.707107 -0.707107 0.000000
-0.707107 0.707107 -0.000000
-0.707107 -0.707107 -0.000000
0.707107 0.000000 0.707107
0.000000 0.707107 -0.707107
0.707107 0.000000 0.707107
-0.707107 -0.000000 -0.707107
-0.707107 0.707107 -0.000000
0.707107 -0.707107 0.000000
0.707107 -0.000000 0.707107
-0.707107 0.000000 -0.707107
-0.000000 0.707107 -0.707107
0.000000 -0.707107 0.707107
-0.000000 0.707107 -0.707107
0.000000 -0.707107 0.707107
0.707107 0.000000 0.707107
-0.707107 -0.000000 -0.707107
-0.707107 0.000000 -0.707107
0.707107 -0.000000 0.707107
-0.707107 -0.707107 0.000000
-0.000000 0.707107 0.707107
0.707107 -0.000000 -0.707107
0.000000 0.707107 -0.707107
-0.000000 -0.707107 0.707107
0.707107 -0.707107 -0.000000
-0.707107 -0.000000 -0.707107
-0.000000 0.707107 0.707107
0.000000 0.707107 -0.707107
-0.000000 -0.707107 0.707107
0.707107 -0.707107 -0.000000
0.000000 0.707107 -0.707107
-0.707107 -0.000000 0.707107
-0.707107 -0.000000 -0.707107
0.707107 0.000000 0.707107
0.707107 -0.707107 0.000000
-0.707107 0.707107 -0.000000
0.707107 -0.000000 -0.707107
-0.707107 0.000000 0.707107
0.000000 0.707107 0.707107
-0.000000 -0.707107 -0.707107
0.707107 0.000000 0.707107
-0.707107 -0.000000 -0.707107
0.707107 -0.000000 -0.707107
-0.707107 0.000000 0.707107
-0.000000 0.707107 0.707107
-0.000000 -0.707107 -0.707107
-0.707107 0.000000 0.707107
0.707107 -0.000000 -0.707107
0.000000 0.707107 -0.707107
-0.000000 -0.707107 0.707107
-0.707107 -0.707107 0.000000
0.707107 0.707107 -0.000000
0.000000 -0.707107 -0.707107
-0.000000 0.707107 0.707107
0.707107 -0.707107 -0.000000
-0.707107 0.707107 0.000000
-0.000000 -0.707107 -0.707107
0.707107 0.707107 0.000000
-0.707107 -0.000000 0.707107
0.000000 -0.707107 -0.707107
-0.000000 0.707107 0.707107
0.707107 -0.000000 -0.707107
-0.707107 0.000000 0.707107
-0.707107 0.000000 0.707107
0.707107 -0.000000 0.707107
-0.707107 0.000000 -0.707107
0.000000 0.707107 -0.707107
-0.000000 -0.707107 0.707107
0.707107 -0.707107 0.000000
-0.707107 0.707107 -0.000000
0.707107 0.707107 -0.000000
-0.707107 -0.707107 0.000000
-0.707107 -0.707107 0.000000
0.707107 0.707107 -0.000000
-0.707107 0.000000 0.707107
0.707107 -0.000000 -0.707107
-0.707107 -0.000000 0.707107
0.707107 0.000000 -0.707107
0.000000 -0.707107 -0.707107
0.000000 -0.707107 -0.707107
-0.000000 0.707107 0.707107
0.000000 -0.707107 0.707107
-0.000000 0.707107 -0.707107
-0.707107 0.000000 -0.707107
0.707107 -0.000000 0.707107
-0.707107 -0.000000 0.707107
0.707107 0.000000 -0.707107
0.707107 -0.707107 0.000000
-0.707107 0.707107 -0.000000
0.707107 0.000000 0.707107
-0.707107 -0.000000 -0.707107
0.000000 -0.707107 -0.707107
-0.000000 0.707107 0.707107
-0.707107 0.707107 0.000000
0.707107 -0.707107 -0.000000
0.000000 -0.707107 0.707107
-0.000000 0.707107 -0.707107
-0.707107 0.707107 0.000000
0.707107 -0.707107 -0.000000
0.000000 -0.707107 0.707107
-0.000000 0.707107 -0.707107
-0.707107 -0.000000 0.707107
0.707107 0.000000 -0.707107
-0.707107 0.707107 -0.000000
0.707107 -0.707107 0.000000
0.707107 -0.000000 0.707107
-0.707107 0.000000 -0.707107
-0.707107 0.707107 0.000000
0.707107 -0.707107 -0.000000
-0.707107 -0.000000 -0.707107
0.707107 -0.000000 0.707107
0.000000 -0.707107 -0.707107
-0.000000 0.707107 0.707107
-0.707107 0.000000 -0.707107
0.707107 -0.000000 0.707107
-0.707107 -0.707107 0.000000
0.707107 0.707107 -0.000000
-0.707107 0.707107 0.000000
0.707107 -0.707107 -0.000000
0.707107 0.000000 -0.707107
0.000000 0.707107 0.707107
-0.707107 -0.707107 0.000000
0.707107 0.000000 0.707107
-0.707107 -0.000000 -0.707107
-0.707107 0.000000 -0.707107
0.707107 -0.000000 0.707107
0.000000 -0.707107 -0.707107
0.000000 -0.707107 -0.707107
-0.000000 0.707107 0.707107
0.707107 0.707107 -0.000000
0.000000 -0.707107 -0.707107
0.000000 -0.707107 -0.707107
-0.000000 0.707107 0.707107
-0.000000 0.707107 0.707107
-0.707107 -0.707107 -0.000000
-0.707107 -0.000000 0.707107
0.707107 0.000000 -0.707107
0.707107 -0.000000 0.707107
-0.707107 0.707107 -0.000000
0.000000 -0.707107 -0.707107
-0.707107 0.707107 0.000000
0.707107 -0.707107 -0.000000
-0.000000 -0.707107 0.707107
0.000000 0.707107 -0.707107
-0.707107 -0.707107 0.000000
0.707107 0.707107 -0.000000
0.707107 -0.707107 0.000000
-0.707107 0.707107 -0.000000
0.000000 -0.707107 -0.707107
-0.000000 0.707107 0.707107
-0.000000 -0.707107 0.707107
0.000000 0.707107 -0.707107
0.000000 1.414214 -0.000000
-0.000000 -1.414214 0.000000
-0.707107 -0.707107 0.000000
0.707107 0.707107 0.000000
-0.707107 -0.707107 -0.000000
0.707107 0.707107 -0.000000
-0.000000 0.707107 -0.707107
0.000000 -0.707107 0.707107
-0.707107 -0.707107 -0.000000
0.707107 0.707107 0.000000
-0.000000 0.707107 -0.707107
-0.707107 -0.707107 -0.000000
0.707107 -0.000000 0.707107
-0.707107 0.707107 0.000000
0.707107 -0.707107 -0.000000
0.707107 0.000000 0.707107
-0.707107 -0.000000 -0.707107
0.707107 0.000000 -0.707107
-0.707107 0.000000 0.707107
-0.707107 -0.707107 -0.000000
0.707107 0.707107 -0.000000
0.707107 0.000000 0.707107
-0.707107 -0.000000 -0.707107
0.707107 0.707107 -0.000000
-0.707107 -0.707107 -0.000000
-0.707107 -0.707107 0.000000
0.707107 0.707107 -0.000000
0.707107 0.000000 0.707107
0.000000 0.707107 -0.707107
-0.707107 -0.707107 -0.000000
-0.707107 -0.707107 0.000000
0.707107 0.707107 0.000000
0.000000 -0.707107 -0.707107
-0.000000 0.707107 0.707107
-0.707107 0.000000 -0.707107
0.707107 -0.000000 0.707107
0.707107 -0.000000 -0.707107
-0.707107 0.000000 0.707107
-0.707107 -0.000000 0.707107
0.707107 0.000000 -0.707107
0.707107 -0.000000 -0.707107
-0.000000 0.707107 0.707107
0.000000 -0.707107 0.707107
-0.707107 0.000000 -0.707107
-0.707107 -0.707107 0.000000
0.707107 0.707107 -0.000000
0.707107 -0.707107 -0.000000
-0.707107 0.707107 0.000000
-0.707107 0.000000 -0.707107
0.707107 -0.000000 0.707107
-0.000000 0.707107 0.707107
-0.707107 -0.707107 0.000000
0.707107 0.000000 -0.707107
-0.707107 0.000000 -0.707107
0.707107 -0.000000 0.707107
0.000000 0.707107 -0.707107
-0.000000 -0.707107 0.707107
0.707107 -0.707107 0.000000
-0.707107 0.707107 -0.000000
-0.000000 -0.707107 -0.707107
0.000000 0.707107 0.707107
0.000000 0.707107 -0.707107
-0.000000 -0.707107 0.707107
0.707107 0.707107 -0.000000
-0.707107 0.000000 -0.707107
-0.000000 -0.707107 0.707107
0.707107 -0.000000 0.707107
-0.707107 0.000000 -0.707107
-0.707107 0.000000 0.707107
0.707107 -0.000000 -0.707107
0.000000 -0.707107 -0.707107
-0.000000 0.707107 0.707107
-0.000000 0.707107 0.707107
0.000000 -0.707107 -0.707107
-0.707107 0.000000 0.707107
0.707107 -0.000000 -0.707107
-0.707107 -0.000000 -0.707107
0.707107 0.000000 0.707107
-0.000000 -1.414214 0.000000
-0.000000 1.414214 -0.000000
0.707107 -0.707107 0.000000
-0.707107 0.707107 -0.000000
-0.000000 0.707107 0.707107
0.000000 -0.707107 -0.707107
0.707107 -0.707107 0.000000
-0.707107 0.707107 -0.000000
0.707107 -0.707107 0.000000
0.707107 -0.707107 0.000000
-0.707107 0.707107 -0.000000
0.707107 0.000000 0.707107
-0.707107 -0.000000 -0.707107
0.707107 0.000000 -0.707107
-0.707107 0.000000 0.707107
0.707107 -0.000000 -0.707107
-0.707107 0.000000 0.707107
0.000000 -0.707107 -0.707107
-0.000000 0.707107 0.707107
-0.707107 -0.707107 0.000000
0.707107 0.707107 -0.000000
-0.000000 0.707107 0.707107
0.000000 -0.707107 -0.707107
-0.707107 -0.000000 -0.707107
0.707107 0.000000 0.707107
-0.707107 0.000000 -0.707107
0.707107 -0.000000 0.707107
0.000000 -0.707107 -0.707107
-0.000000 0.707107 0.707107
0.000000 0.707107 -0.707107
-0.000000 -0.707107 0.707107
-0.707107 0.000000 -0.707107
0.000000 -0.707107 0.707107
0.707107 0.707107 -0.000000
-0.707107 -0.000000 0.707107
0.707107 0.000000 -0.707107
-0.000000 -0.707107 -0.707107
0.000000 0.707107 0.707107
0.707107 0.707107 0.000000
-0.707107 -0.707107 -0.000000
0.000000 0.707107 0.707107
0.000000 -0.707107 -0.707107
-0.707107 -0.707107 0.000000
0.707107 0.707107 -0.000000
-0.000000 0.707107 -0.707107
0.000000 -0.707107 0.707107
0.707107 0.707107 -0.000000
-0.000000 -0.707107 0.707107
-0.707107 -0.000000 -0.707107
0.707107 0.000000 -0.707107
-0.707107 -0.000000 0.707107
-0.707107 0.707107 0.000000
0.707107 -0.707107 -0.000000
-0.707107 0.000000 0.707107
0.707107 -0.000000 -0.707107
0.000000 -0.707107 -0.707107
-0.000000 0.707107 0.707107
-0.707107 -0.707107 0.000000
0.707107 0.707107 -0.000000
0.000000 -0.707107 -0.707107
-0.000000 0.707107 0.707107
0.707107 0.707107 0.000000
-0.707107 -0.707107 -0.000000
-0.000000 -0.707107 0.707107
0.000000 0.707107 -0.707107
-0.707107 -0.000000 -0.707107
0.707107 0.000000 0.707107
0.707107 -0.707107 -0.000000
-0.707107 0.707107 0.000000
-0.707107 -0.000000 0.707107
0.707107 0.000000 -0.707107
-0.000000 -0.707107 -0.707107
0.000000 0.707107 0.707107
0.000000 0.707107 0.707107
0.000000 -1.414214 0.000000
0.000000 1.414214 -0.000000
0.707107 -0.707107 0.000000
-0.707107 0.707107 -0.000000
-0.707107 0.707107 -0.000000
0.707107 0.000000 0.707107
0.000000 -0.707107 -0.707107
0.707107 0.000000 0.707107
-0.707107 0.000000 -0.707107
-0.707107 -0.707107 -0.000000
0.707107 0.707107 0.000000
-0.000000 0.707107 0.707107
0.000000 -0.707107 -0.707107
-0.707107 0.000000 0.707107
0.707107 -0.000000 -0.707107
0.707107 -0.707107 -0.000000
0.000000 0.707107 -0.707107
-0.707107 0.000000 0.707107
-0.000000 -1.414214 -0.000000
0.000000 1.414214 0.000000
0.707107 -0.000000 0.707107
-0.707107 0.000000 -0.707107
0.707107 0.707107 0.000000
-0.707107 -0.707107 -0.000000
-0.707107 0.707107 0.000000
0.707107 -0.707107 -0.000000
-0.707107 -0.707107 0.000000
0.707107 0.707107 -0.000000
0.707107 0.000000 -0.707107
-0.707107 -0.000000 0.707107
0.707107 -0.000000 -0.707107
-0.707107 -0.000000 0.707107
0.000000 0.707107 0.707107
-0.000000 -0.707107 -0.707107
-0.000000 -0.000000 -1.414214
0.000000 0.000000 1.414214
0.707107 0.000000 0.707107
-0.707107 -0.000000 -0.707107
-0.000000 0.707107 -0.707107
0.000000 -0.707107 0.707107
-0.000000 0.707107 0.707107
0.000000 -0.707107 -0.707107
0.000000 0.707107 -0.707107
-0.000000 -0.707107 0.707107
-0.000000 -0.707107 0.707107
0.707107 0.707107 0.000000
-0.707107 -0.000000 -0.707107
-0.707107 0.000000 0.707107
0.707107 -0.000000 -0.707107
-0.707107 0.707107 0.000000
0.707107 -0.707107 -0.000000
-0.000000 0.707107 -0.707107
0.000000 -0.707107 0.707107
0.707107 0.707107 0.000000
-0.707107 -0.707107 0.000000
-0.000000 0.707107 -0.707107
0.000000 -0.707107 0.707107
-0.707107 0.000000 -0.707107
0.707107 -0.000000 0.707107
0.707107 -0.000000 -0.707107
-0.707107 0.000000 -0.707107
0.707107 -0.000000 0.707107
-0.707107 -0.000000 -0.707107
0.707107 0.000000 0.707107
0.707107 -0.707107 0.000000
-0.707107 0.707107 -0.000000
-0.707107 0.707107 0.000000
0.707107 -0.707107 -0.000000
-0.707107 -0.000000 -0.707107
0.707107 0.000000 0.707107
0.000000 0.707107 0.707107
-0.000000 -0.707107 -0.707107
0.707107 -0.000000 0.707107
-0.707107 0.000000 -0.707107
0.707107 -0.707107 0.000000
-0.707107 0.707107 -0.000000
0.707107 0.707107 0.000000
-0.707107 -0.707107 -0.000000
-0.000000 -0.707107 -0.707107
0.000000 0.707107 0.707107
0.000000 0.707107 0.707107
-0.000000 -0.707107 -0.707107
-0.707107 -0.707107 0.000000
0.707107 0.707107 -0.000000
0.707107 -0.000000 0.707107
-0.707107 0.000000 -0.707107
0.707107 0.707107 0.000000
-0.707107 -0.707107 0.000000
-0.000000 -0.707107 0.707107
0.000000 0.707107 -0.707107
-0.000000 -0.707107 -0.707107
0.707107 0.707107 0.000000
-0.707107 -0.000000 0.707107
-0.707107 0.707107 0.000000
0.707107 0.000000 0.707107
-0.000000 -0.707107 -0.707107
0.000000 0.707107 0.707107
-0.000000 -0.707107 -0.707107
-0.000000 0.707107 -0.707107
0.000000 -0.707107 0.707107
0.707107 0.000000 -0.707107
-0.000000 -0.707107 0.707107
-0.707107 0.707107 -0.000000
-0.707107 -0.000000 -0.707107
-0.707107 -0.000000 -0.707107
0.707107 0.000000 0.707107
-0.707107 -0.000000 0.707107
0.707107 0.000000 -0.707107
0.707107 0.000000 -0.707107
0.707107 0.000000 0.707107
-0.707107 -0.000000 -0.707107
-0.000000 0.707107 0.707107
-0.707107 -0.707107 0.000000
0.707107 -0.000000 -0.707107
0.707107 -0.000000 0.707107
-0.000000 -0.707107 -0.707107
-0.707107 0.707107 -0.000000
-0.707107 -0.707107 0.000000
0.707107 0.707107 -0.000000
-0.707107 -0.707107 -0.000000
0.707107 0.707107 0.000000
-0.000000 -0.707107 -0.707107
0.000000 0.707107 0.707107
-0.707107 0.707107 0.000000
0.707107 -0.707107 -0.000000
-0.707107 -0.707107 -0.000000
0.707107 0.707107 -0.000000
0.707107 -0.000000 -0.707107
-0.707107 0.000000 0.707107
0.000000 0.707107 -0.707107
0.707107 -0.000000 0.707107
-0.707107 -0.707107 -0.000000
0.000000 -0.707107 -0.707107
-0.000000 0.707107 0.707107
-0.000000 -0.000000 -1.414214
-0.000000 0.707107 0.707107
0.000000 -0.707107 -0.707107
-0.707107 0.707107 -0.000000
0.707107 -0.707107 0.000000
-0.707107 0.707107 -0.000000
0.707107 0.000000 -0.707107
-0.000000 -0.707107 0.707107
0.000000 -0.707107 -0.707107
-0.000000 0.707107 0.707107
0.707107 0.000000 -0.707107
-0.707107 -0.707107 -0.000000
-0.000000 0.707107 0.707107
-0.000000 -0.707107 -0.707107
0.000000 0.707107 0.707107
-0.707107 -0.000000 -0.707107
0.000000 0.707107 0.707107
0.707107 -0.707107 0.000000
0.707107 -0.000000 -0.707107
-0.707107 -0.000000 0.707107
-0.000000 0.707107 0.707107
0.707107 -0.707107 -0.000000
-0.707107 0.000000 -0.707107
0.000000 0.707107 -0.707107
-0.000000 -0.707107 0.707107
0.000000 0.707107 0.707107
-0.000000 -0.707107 -0.707107
0.000000 -0.707107 -0.707107
-0.000000 0.707107 0.707107
-0.000000 0.707107 0.707107
-0.000000 -0.707107 -0.707107
-0.707107 0.707107 0.000000
0.707107 -0.707107 -0.000000
-0.707107 0.707107 -0.000000
0.707107 -0.707107 0.000000
0.000000 0.707107 0.707107
-0.000000 -0.707107 -0.707107
-0.707107 0.000000 -0.707107
0.707107 -0.000000 0.707107
-0.000000 0.707107 -0.707107
0.707107 0.707107 0.000000
-0.707107 -0.707107 -0.000000
0.707107 0.707107 0.000000
-0.707107 -0.707107 -0.000000
-0.707107 0.000000 -0.707107
0.707107 -0.000000 0.707107
-0.707107 -0.000000 0.707107
0.707107 0.000000 -0.707107
-0.000000 0.707107 -0.707107
0.000000 -0.707107 0.707107
0.707107 -0.707107 0.000000
-0.707107 0.707107 -0.000000
0.707107 -0.707107 0.000000
-0.000000 0.707107 0.707107
-0.000000 0.707107 0.707107
-0.707107 0.000000 -0.707107
0.707107 0.707107 -0.000000
-0.707107 -0.707107 0.000000
0.000000 0.707107 0.707107
-0.000000 -0.707107 -0.707107
-0.000000 -0.707107 -0.707107
0.707107 0.000000 -0.707107
-0.707107 -0.000000 0.707107
-0.000000 0.707107 -0.707107
0.707107 -0.707107 0.000000
-0.707107 0.000000 0.707107
0.000000 0.707107 -0.707107
-0.000000 -0.707107 0.707107
0.000000 -0.707107 -0.707107
-0.000000 0.707107 0.707107
0.000000 -0.707107 -0.707107
-0.000000 0.707107 0.707107
0.707107 -0.000000 0.707107
-0.707107 0.000000 -0.707107
-0.707107 -0.000000 -0.707107
0.000000 0.707107 0.707107
0.707107 -0.707107 0.000000
-0.707107 0.707107 0.000000
-0.707107 0.000000 -0.707107
0.707107 -0.000000 0.707107
0.707107 -0.707107 -0.000000
-0.707107 0.707107 0.000000
0.707107 -0.707107 -0.000000
0.000000 0.707107 -0.707107
-0.000000 -0.707107 0.707107
-0.707107 0.000000 0.707107
0.707107 -0.000000 -0.707107
0.707107 -0.000000 -0.707107
-0.707107 0.000000 0.707107
-0.707107 -0.000000 -0.707107
0.707107 0.000000 0.707107
-0.000000 0.707107 -0.707107
0.000000 -0.707107 0.707107
-0.000000 0.707107 -0.707107
0.000000 -0.707107 0.707107
-0.707107 -0.000000 0.707107
0.707107 0.000000 -0.707107
0.707107 0.000000 0.707107
-0.707107 -0.000000 -0.707107
-0.707107 0.707107 0.000000
0.707107 -0.707107 -0.000000
-0.707107 0.000000 -0.707107
0.707107 -0.000000 0.707107
-0.000000 0.707107 0.707107
0.000000 -0.707107 -0.707107
0.000000 -0.707107 -0.707107
-0.000000 0.707107 0.707107
-0.000000 0.707107 0.707107
0.000000 -0.707107 -0.707107
0.707107 -0.000000 -0.707107
-1.414214 0.000000 0.000000
0.707107 -0.707107 -0.000000
-0.707107 0.707107 0.000000
-0.707107 -0.707107 -0.000000
0.707107 0.707107 0.000000
0.707107 0.000000 -0.707107
-0.707107 -0.000000 0.707107
-0.707107 0.707107 0.000000
0.000000 -0.707107 0.707107
0.707107 0.000000 -0.707107
0.707107 0.000000 0.707107
-0.707107 -0.000000 -0.707107
0.707107 0.707107 -0.000000
-0.707107 -0.707107 0.000000
0.707107 0.707107 0.000000
-0.000000 -0.707107 -0.707107
-0.707107 0.000000 0.707107
-0.707107 -0.707107 0.000000
0.707107 0.707107 -0.000000
-0.000000 -0.707107 -0.707107
-0.000000 0.707107 0.707107
-0.000000 -0.707107 0.707107
-0.707107 0.000000 -0.707107
0.707107 0.707107 0.000000
-0.707107 -0.707107 0.000000
0.707107 0.707107 0.000000
0.707107 -0.707107 0.000000
-0.707107 0.707107 -0.000000
-0.707107 0.000000 -0.707107
0.707107 -0.000000 0.707107
-0.000000 -0.707107 0.707107
-0.707107 0.707107 0.000000
-0.707107 0.000000 0.707107
0.707107 0.000000 -0.707107
-0.707107 0.707107 -0.000000
0.707107 -0.707107 0.000000
0.707107 -0.000000 0.707107
-0.707107 0.000000 -0.707107
-0.707107 -0.707107 0.000000
0.707107 0.707107 -0.000000
0.707107 -0.000000 0.707107
-0.707107 -0.000000 -0.707107
-0.707107 0.707107 0.000000
0.707107 -0.707107 -0.000000
0.000000 -0.707107 -0.707107
-0.000000 0.707107 0.707107
-0.707107 -0.707107 0.000000
0.707107 0.707107 -0.000000
0.000000 0.707107 -0.707107
-0.000000 -0.707107 0.707107
0.000000 -0.707107 0.707107
-0.000000 0.707107 -0.707107
-0.707107 -0.707107 -0.000000
0.707107 0.707107 0.000000
0.707107 0.707107 -0.000000
-0.707107 -0.707107 0.000000
0.707107 0.707107 0.000000
0.707107 0.707107 0.000000
0.000000 -0.707107 -0.707107
-0.707107 0.000000 0.707107
0.707107 -0.000000 -0.707107
-0.707107 0.000000 -0.707107
0.000000 0.707107 0.707107
0.707107 -0.707107 -0.000000
0.707107 -0.000000 -0.707107
-0.707107 0.000000 0.707107
0.707107 0.707107 0.000000
-0.707107 -0.707107 -0.000000
0.707107 -0.707107 0.000000
-0.707107 0.707107 -0.000000
0.707107 0.707107 -0.000000
-0.707107 -0.707107 0.000000
0.000000 0.707107 0.707107
-0.000000 -0.707107 -0.707107
-0.707107 -0.707107 0.000000
0.707107 -0.000000 -0.707107
0.000000 0.707107 0.707107
-0.707107 -0.707107 0.000000
0.707107 0.707107 -0.000000
-0.000000 -0.707107 -0.707107
0.000000 0.707107 0.707107
0.000000 -0.707107 -0.707107
-0.000000 0.707107 0.707107
0.707107 -0.000000 0.707107
-0.707107 0.000000 -0.707107
-0.000000 0.707107 -0.707107
0.000000 -0.707107 0.707107