# vtk DataFile Version 3.0
Dislocation network (FCC crystal) exported from OpenDiS
ASCII
DATASET UNSTRUCTURED_GRID
POINTS 4332 FLOAT
0.00000000e+00 0.00000000e+00 0.00000000e+00
1.95620000e+04 0.00000000e+00 0.00000000e+00
0.00000000e+00 1.95620000e+04 0.00000000e+00
0.00000000e+00 0.00000000e+00 1.95620000e+04
1.95620000e+04 1.95620000e+04 0.00000000e+00
1.95620000e+04 0.00000000e+00 1.95620000e+04
0.00000000e+00 1.95620000e+04 1.95620000e+04
1.95620000e+04 1.95620000e+04 1.95620000e+04
2.20595102e+03 6.02185091e+03 1.24627779e+04
2.29481762e+03 5.92352397e+03 1.24533175e+04
2.20595102e+03 6.02185091e+03 1.24627779e+04
2.32727664e+03 6.15411964e+03 1.24737210e+04
1.37287028e+04 1.59184513e+04 5.35891748e+03
1.38431789e+04 1.58146381e+04 5.36958048e+03
1.37287028e+04 1.59184513e+04 5.35891748e+03
1.36255335e+04 1.60263343e+04 5.36363127e+03
2.39368228e+03 5.82421406e+03 1.24528723e+04
2.29481762e+03 5.92352397e+03 1.24533175e+04
2.39368228e+03 5.82421406e+03 1.24528723e+04
2.49634365e+03 5.73496290e+03 1.24662825e+04
1.22680811e+04 4.39816163e+03 4.93516184e+03
1.23150817e+04 4.44440473e+03 4.84191816e+03
1.22680811e+04 4.39816163e+03 4.93516184e+03
1.21945497e+04 4.33133616e+03 5.07551874e+03
2.69449423e+03 5.60485258e+03 1.25343227e+04
2.78833555e+03 5.65941936e+03 1.24950482e+04
2.69449423e+03 5.60485258e+03 1.25343227e+04
2.59780286e+03 5.66106441e+03 1.24938432e+04
3.86813877e+03 8.86164021e+03 1.07348031e+04
3.91077376e+03 8.93947957e+03 1.08552775e+04
3.86813877e+03 8.86164021e+03 1.07348031e+04
3.85564096e+03 8.81842436e+03 1.06790895e+04
2.88815602e+03 5.73191146e+03 1.24677198e+04
2.78833555e+03 5.65941936e+03 1.24950482e+04
2.88815602e+03 5.73191146e+03 1.24677198e+04
2.99121089e+03 5.82089911e+03 1.24536526e+04
2.59780286e+03 5.66106441e+03 1.24938432e+04
2.49634365e+03 5.73496290e+03 1.24662825e+04
3.18303743e+03 6.02188769e+03 1.24628146e+04
3.10984788e+03 6.10289690e+03 1.24706343e+04
3.18303743e+03 6.02188769e+03 1.24628146e+04
3.08930565e+03 5.91861944e+03 1.24532782e+04
1.20413941e+04 4.21128521e+03 5.34872529e+03
1.21159627e+04 4.26533963e+03 5.22010225e+03
1.20413941e+04 4.21128521e+03 5.34872529e+03
1.19746151e+04 4.18354893e+03 5.44324053e+03
2.80349079e+03 6.37342153e+03 1.24348018e+04
2.91567828e+03 6.28907596e+03 1.24626438e+04
2.80349079e+03 6.37342153e+03 1.24348018e+04
2.69449423e+03 6.43786426e+03 1.23902480e+04
1.14424764e+04 1.27254133e+04 7.33466269e+03
1.14319160e+04 1.28436392e+04 7.22699721e+03
1.14424764e+04 1.27254133e+04 7.33466269e+03
1.14322064e+04 1.25927164e+04 7.47762952e+03
2.69449423e+03 6.43786426e+03 1.23902480e+04
2.61133339e+03 6.39033988e+03 1.24258845e+04
9.49317731e+03 9.05618172e+03 1.47436782e+04
9.55757006e+03 8.97303862e+03 1.47249279e+04
9.49317731e+03 9.05618172e+03 1.47436782e+04
9.43553929e+03 9.13091026e+03 1.47607687e+04
2.42632599e+03 6.24884157e+03 1.24693935e+04
2.52114760e+03 6.32721984e+03 1.24529502e+04
2.42632599e+03 6.24884157e+03 1.24693935e+04
2.32727664e+03 6.15411964e+03 1.24737210e+04
1.03645649e+04 4.38083831e+03 1.84793281e+04
1.04777989e+04 4.48132081e+03 1.84665766e+04
1.03645649e+04 4.38083831e+03 1.84793281e+04
1.02491957e+04 4.29566405e+03 1.85095231e+04
1.68050128e+04 1.67682750e+04 1.32237519e+04
1.67991610e+04 1.68192600e+04 1.31669151e+04
1.68050128e+04 1.67682750e+04 1.32237519e+04
1.67966372e+04 1.66966568e+04 1.33037457e+04
4.93438083e+03 6.52765986e+03 1.52718605e+04
5.01002922e+03 6.50804679e+03 1.53671220e+04
4.93438083e+03 6.52765986e+03 1.52718605e+04
4.85873245e+03 6.54727293e+03 1.51765991e+04
1.67660998e+04 1.69962092e+04 1.29569047e+04
1.67844930e+04 1.69128736e+04 1.30586335e+04
1.67660998e+04 1.69962092e+04 1.29569047e+04
1.67377083e+04 1.70929931e+04 1.28317293e+04
1.67377083e+04 1.70929931e+04 1.28317293e+04
1.66991297e+04 1.71935595e+04 1.26925843e+04
1.66991297e+04 1.71935595e+04 1.26925843e+04
1.66495074e+04 1.72943746e+04 1.25421469e+04
1.66495074e+04 1.72943746e+04 1.25421469e+04
1.66182698e+04 1.73441147e+04 1.24611691e+04
1.65870321e+04 1.73938548e+04 1.23801914e+04
1.66182698e+04 1.73441147e+04 1.24611691e+04
1.65870321e+04 1.73938548e+04 1.23801914e+04
1.65176800e+04 1.74810014e+04 1.22236927e+04
1.65176800e+04 1.74810014e+04 1.22236927e+04
1.64519064e+04 1.75476726e+04 1.20912479e+04
1.63754698e+04 1.76103815e+04 1.19521024e+04
1.64519064e+04 1.75476726e+04 1.20912479e+04
1.63754698e+04 1.76103815e+04 1.19521024e+04
1.62827610e+04 1.76695843e+04 1.18001908e+04
1.62827610e+04 1.76695843e+04 1.18001908e+04
1.62186507e+04 1.77015899e+04 1.17040749e+04
1.60274491e+04 1.77621700e+04 1.14522931e+04
1.61471664e+04 1.77300038e+04 1.16041767e+04
1.60274491e+04 1.77621700e+04 1.14522931e+04
1.59596100e+04 1.77698910e+04 1.13767331e+04
1.57434304e+04 1.77709884e+04 1.11594560e+04
1.58176007e+04 1.77743002e+04 1.12303145e+04
1.57434304e+04 1.77709884e+04 1.11594560e+04
1.56633734e+04 1.77538708e+04 1.10965166e+04
1.54204365e+04 1.76714086e+04 1.09360420e+04
1.55018765e+04 1.77040809e+04 1.09848096e+04
1.54204365e+04 1.76714086e+04 1.09360420e+04
1.52955302e+04 1.77220902e+04 1.10102668e+04
1.50288665e+04 1.77717390e+04 1.12272817e+04
1.51665068e+04 1.77557273e+04 1.11056530e+04
1.50288665e+04 1.77717390e+04 1.12272817e+04
1.49139427e+04 1.77691790e+04 1.13447654e+04
1.48263947e+04 1.77570627e+04 1.14444297e+04
1.49139427e+04 1.77691790e+04 1.13447654e+04
1.48263947e+04 1.77570627e+04 1.14444297e+04
1.47500654e+04 1.77391681e+04 1.15386537e+04
1.45622243e+04 1.76621613e+04 1.18035016e+04
1.46687839e+04 1.77121462e+04 1.16469570e+04
1.45622243e+04 1.76621613e+04 1.18035016e+04
1.44654833e+04 1.75997348e+04 1.19626691e+04
1.44654833e+04 1.75997348e+04 1.19626691e+04
1.43910468e+04 1.75382367e+04 1.20986037e+04
1.43266474e+04 1.74731807e+04 1.22280591e+04
1.43910468e+04 1.75382367e+04 1.20986037e+04
1.43266474e+04 1.74731807e+04 1.22280591e+04
1.42572432e+04 1.73864635e+04 1.23841805e+04
1.42572432e+04 1.73864635e+04 1.23841805e+04
1.41946807e+04 1.72876247e+04 1.25455818e+04
1.41946807e+04 1.72876247e+04 1.25455818e+04
1.41449232e+04 1.71878067e+04 1.26951573e+04
1.41449232e+04 1.71878067e+04 1.26951573e+04
1.41060886e+04 1.70883980e+04 1.28334006e+04
1.41060886e+04 1.70883980e+04 1.28334006e+04
1.40772756e+04 1.69925576e+04 1.29580539e+04
1.40772756e+04 1.69925576e+04 1.29580539e+04
1.40592987e+04 1.69141934e+04 1.30543951e+04
3.50877419e+03 8.74164840e+03 1.06504331e+03
3.58303573e+03 8.65725340e+03 9.06386769e+02
3.50877419e+03 8.74164840e+03 1.06504331e+03
3.46874967e+03 8.78495087e+03 1.14837029e+03
1.40358603e+04 1.67541560e+04 1.32378709e+04
1.40429918e+04 1.66904039e+04 1.33087545e+04
1.40358603e+04 1.67541560e+04 1.32378709e+04
1.40458429e+04 1.68358696e+04 1.31461746e+04
5.98816876e+03 1.86787268e+04 3.41421165e+03
6.04206952e+03 1.86261077e+04 3.30769174e+03
5.98816876e+03 1.86787268e+04 3.41421165e+03
5.96149446e+03 1.87059848e+04 3.46814393e+03
1.40586329e+04 1.65932228e+04 1.34215767e+04
1.40429918e+04 1.66904039e+04 1.33087545e+04
1.40586329e+04 1.65932228e+04 1.34215767e+04
1.40815415e+04 1.64947916e+04 1.35429165e+04
1.40815415e+04 1.64947916e+04 1.35429165e+04
1.41146261e+04 1.63900989e+04 1.36806939e+04
1.41146261e+04 1.63900989e+04 1.36806939e+04
1.41586827e+04 1.62843127e+04 1.38305366e+04
1.41586827e+04 1.62843127e+04 1.38305366e+04
1.41861012e+04 1.62298836e+04 1.39123843e+04
1.42160781e+04 1.61771486e+04 1.39950961e+04
1.41861012e+04 1.62298836e+04 1.39123843e+04
1.42160781e+04 1.61771486e+04 1.39950961e+04
1.42793593e+04 1.60845504e+04 1.41509755e+04
1.42793593e+04 1.60845504e+04 1.41509755e+04
1.43423958e+04 1.60104250e+04 1.42881374e+04
1.44151190e+04 1.59408500e+04 1.44304356e+04
1.43423958e+04 1.60104250e+04 1.42881374e+04
1.44151190e+04 1.59408500e+04 1.44304356e+04
1.44616537e+04 1.59033798e+04 1.45144405e+04
1.45116411e+04 1.58681120e+04 1.45996957e+04
1.44616537e+04 1.59033798e+04 1.45144405e+04
1.45116411e+04 1.58681120e+04 1.45996957e+04
1.46137913e+04 1.58109200e+04 1.47590380e+04
1.48202002e+04 1.57440461e+04 1.50323207e+04
1.47097241e+04 1.57726801e+04 1.48932107e+04
1.48202002e+04 1.57440461e+04 1.50323207e+04
1.49504230e+04 1.57292399e+04 1.51773498e+04
1.49504230e+04 1.57292399e+04 1.51773498e+04
1.50869226e+04 1.57341502e+04 1.53089391e+04
1.54204365e+04 1.58347103e+04 1.55418929e+04
1.53314268e+04 1.57946240e+04 1.54929695e+04
1.54204365e+04 1.58347103e+04 1.55418929e+04
1.55662893e+04 1.57779438e+04 1.54528067e+04
1.58515140e+04 1.57366040e+04 1.52089217e+04
1.57101995e+04 1.57459123e+04 1.53409280e+04
1.58515140e+04 1.57366040e+04 1.52089217e+04
1.59725343e+04 1.57460867e+04 1.50784187e+04
1.60783833e+04 1.57682845e+04 1.49503719e+04
1.59725343e+04 1.57460867e+04 1.50784187e+04
1.60783833e+04 1.57682845e+04 1.49503719e+04
1.61930479e+04 1.58086954e+04 1.47952964e+04
1.62974903e+04 1.58626447e+04 1.46369048e+04
1.61930479e+04 1.58086954e+04 1.47952964e+04
1.62974903e+04 1.58626447e+04 1.46369048e+04
1.63843770e+04 1.59223985e+04 1.44902642e+04
1.64634072e+04 1.59909824e+04 1.43426501e+04
1.63843770e+04 1.59223985e+04 1.44902642e+04
1.64634072e+04 1.59909824e+04 1.43426501e+04
1.65364480e+04 1.60700504e+04 1.41905413e+04
1.65364480e+04 1.60700504e+04 1.41905413e+04
1.65827248e+04 1.61304681e+04 1.40838468e+04
1.66232619e+04 1.61919920e+04 1.39817858e+04
1.65827248e+04 1.61304681e+04 1.40838468e+04
1.66232619e+04 1.61919920e+04 1.39817858e+04
1.66772031e+04 1.62908792e+04 1.38289574e+04
1.66772031e+04 1.62908792e+04 1.38289574e+04
1.67223442e+04 1.63965556e+04 1.36781399e+04
1.67223442e+04 1.63965556e+04 1.36781399e+04
1.67563812e+04 1.65010261e+04 1.35396324e+04
1.67563812e+04 1.65010261e+04 1.35396324e+04
1.67801195e+04 1.65991470e+04 1.34177733e+04
1.67801195e+04 1.65991470e+04 1.34177733e+04
1.67966372e+04 1.66966568e+04 1.33037457e+04
5.56326616e+03 3.97142350e+03 1.61123554e+04
5.50189778e+03 3.90862689e+03 1.62365204e+04
5.56326616e+03 3.97142350e+03 1.61123554e+04
5.62613152e+03 4.04001204e+03 1.59809015e+04
9.81549286e+03 1.58658571e+04 3.70217335e+03
[...]
CELL_DATA 2163
SCALARS SlipSystemID int 1
LOOKUP_TABLE default
0
10
7
10
10
10
10
3
3
7
10
12
12
7
7
10
10
7
3
3
10
10
2
2
7
10
10
7
7
7
7
4
1
4
4
4
4
4
4
4
4
4
4
4
4
4
4
4
4
4
4
1
1
1
1
1
1
1
1
1
1
1
1
1
1
1
9
9
4
1
9
9
4
4
4
4
4
4
4
4
4
4
4
4
4
4
4
4
1
1
1
1
1
1
1
1
1
1
1
1
1
1
1
1
3
3
5
11
4
4
5
5
5
5
5
5
5
5
5
5
5
5
5
5
5
5
11
11
11
11
11
11
11
11
11
11
11
11
11
11
11
11
11
7
7
5
11
3
3
5
5
5
5
5
5
5
5
5
5
5
5
5
5
5
5
11
11
11
11
11
11
11
11
11
11
11
11
11
11
11
11
11
8
2
12
12
2
2
2
2
2
2
8
8
8
8
8
8
3
3
8
2
2
2
2
2
2
2
2
8
8
8
8
8
8
8
9
6
2
2
4
4
6
6
6
6
6
11
11
6
9
8
8
9
9
9
9
9
3
3
12
12
6
9
8
8
8
8
6
6
6
6
6
12
12
9
6
12
12
9
9
9
9
9
9
2
2
3
12
3
3
3
3
3
3
3
3
3
3
9
9
6
6
12
4
4
12
12
12
12
12
9
9
12
12
9
9
12
3
12
12
6
6
9
9
3
3
3
3
3
3
3
4
4
12
12
12
12
12
12
12
12
9
9
4
4
11
11
10
7
10
10
10
10
10
10
7
7
7
7
7
7
7
10
10
10
10
10
10
7
7
7
7
7
4
1
1
1
4
4
4
4
4
4
4
4
4
4
4
1
1
1
1
1
1
1
1
1
1
1
9
9
4
1
4
4
4
4
4
4
4
4
4
4
4
4
1
1
1
1
1
1
1
1
1
1
1
5
5
5
11
5
5
5
12
5
11
11
11
11
11
5
5
5
5
11
11
5
11
2
2
11
11
11
8
2
6
6
2
2
2
2
1
1
8
2
8
8
8
8
8
2
2
2
2
2
2
4
4
8
8
8
8
8
8
9
6
2
2
12
12
12
6
9
1
1
5
5
1
1
6
9
2
2
9
9
6
8
6
7
7
7
7
4
4
3
12
5
5
3
3
9
8
8
12
3
10
10
6
6
4
8
8
12
12
3
12
8
2
2
1
1
3
12
10
10
4
1
1
2
8
8
10
7
10
10
10
10
10
10
7
7
7
7
7
7
7
10
10
10
10
10
10
7
7
7
7
7
4
1
4
4
4
4
4
1
1
1
1
1
1
4
4
4
4
4
4
4
1
1
1
1
1
1
11
5
5
5
5
5
5
5
11
11
11
11
11
11
5
11
5
5
5
5
5
5
11
11
11
11
11
11
8
12
5
5
8
7
8
8
12
2
8
3
3
2
2
2
2
8
2
4
4
8
8
10
10
6
9
9
9
12
6
6
6
6
6
9
9
12
9
9
1
1
6
9
3
3
6
6
6
6
6
6
6
9
9
3
3
9
9
12
3
2
2
2
2
3
3
3
3
3
3
12
12
12
12
12
12
12
12
9
9
5
5
3
12
12
12
12
12
3
3
3
3
3
3
3
12
12
12
12
12
12
7
7
10
7
10
10
10
10
10
7
7
7
11
11
7
7
7
10
10
10
10
10
10
10
7
7
7
7
7
7
4
1
4
4
4
4
4
4
1
1
1
1
1
1
1
4
4
4
4
4
4
1
1
1
1
1
5
11
5
5
5
5
5
11
4
4
11
11
11
11
11
5
5
5
5
5
5
5
11
7
7
11
11
11
11
11
8
2
9
12
12
2
2
2
2
2
2
2
2
2
2
2
8
8
8
8
8
8
8
8
12
12
11
11
2
8
2
2
2
2
2
2
2
2
2
2
2
2
8
8
8
8
8
8
8
8
8
8
8
8
9
6
7
7
9
9
6
6
6
6
6
9
9
11
11
9
9
10
6
9
8
8
1
1
6
6
6
6
6
9
9
9
9
9
3
3
1
1
1
1
10
10
3
3
3
3
12
12
12
12
12
3
4
4
12
3
9
9
7
7
3
3
3
3
3
12
12
12
12
12
6
7
7
10
7
10
10
10
10
10
7
2
2
7
7
7
10
10
10
10
10
2
7
8
8
7
7
7
4
1
1
4
4
4
4
4
4
4
1
1
1
1
1
1
1
9
4
4
4
4
4
4
4
4
1
1
1
1
1
1
1
5
11
5
5
5
5
5
5
11
11
11
11
11
11
11
5
5
5
5
5
5
11
11
11
11
11
8
2
2
2
2
2
3
3
4
4
8
2
9
8
8
8
2
2
2
2
3
3
1
8
2
2
8
8
6
9
1
6
6
12
12
10
10
9
4
4
9
9
3
3
6
9
4
12
12
7
3
3
6
1
7
7
2
2
6
6
3
12
2
2
12
12
12
3
4
1
2
2
3
12
9
1
1
3
3
12
4
12
5
7
10
7
7
10
10
10
10
10
10
10
7
7
7
7
7
7
11
11
10
10
10
10
10
10
10
10
7
7
7
7
7
7
7
4
8
8
4
4
4
6
11
11
12
12
1
8
8
10
10
4
4
8
8
11
11
1
1
8
8
11
5
5
5
5
5
11
11
11
11
11
11
5
1
1
5
5
5
5
5
5
11
11
11
11
11
11
9
2
8
2
2
2
2
2
2
2
8
8
8
8
8
8
8
8
2
2
2
2
2
2
2
2
8
8
8
8
8
8
8
6
6
9
6
5
5
9
9
8
6
9
1
1
6
6
6
9
5
5
12
12
7
7
12
12
3
3
3
3
3
11
11
12
3
12
12
12
12
3
7
12
3
6
12
3
3
3
3
3
3
12
12
12
12
12
12
4
4
6
7
10
10
10
10
10
7
7
7
7
7
7
7
10
10
10
10
10
10
10
7
7
7
7
7
7
1
4
4
4
4
4
3
3
1
1
1
1
1
1
1
4
4
4
4
4
4
6
6
1
1
1
1
1
5
11
5
5
5
5
5
5
11
11
11
11
11
5
3
5
5
5
5
5
11
11
11
11
11
2
8
2
2
3
3
2
2
8
12
12
12
8
8
2
2
2
8
8
2
8
10
10
5
5
6
9
3
6
6
6
9
9
9
12
12
9
9
6
6
6
6
6
9
6
8
9
9
9
9
6
6
6
12
7
7
2
12
11
1
1
3
12
12
10
3
11
11
7
6
6
9
9
10
5
12
12
8
8
10
7
7
10
10
9
7
1
10
4
4
4
4
4
1
1
1
1
1
1
1
1
8
4
4
4
4
1
1
1
1
1
5
5
11
9
5
5
12
5
11
6
6
11
11
11
5
5
5
5
5
5
11
11
11
11
11
2
8
2
2
2
2
2
2
3
8
8
8
8
8
8
8
2
2
2
2
8
8
8
8
8
6
9
12
12
9
6
9
6
6
9
9
12
12
6
5
9
6
6
10
10
3
3
2
7
3
7
7
5
3
3
12
12
3
5
1
1
12
12
12
1
10
7
10
10
10
10
10
7
3
3
7
7
7
7
7
10
10
10
10
10
4
7
4
7
7
7
1
4
4
4
4
4
1
1
1
1
1
1
4
4
4
4
4
4
1
1
1
1
1
5
11
5
9
9
9
5
11
10
11
5
3
5
5
5
5
11
7
7
6
11
11
11
2
2
9
8
2
9
8
8
8
8
2
12
2
2
9
6
11
4
9
9
9
12
12
6
5
9
6
9
9
6
12
6
6
6
10
12
3
6
9
6
6
12
3
4
4
6
12
3
10
10
11
6
6
10
3
3
6
6
3
7
7
7
10
12
10
10
10
10
10
10
7
7
7
7
7
10
10
10
10
10
10
10
7
7
7
7
7
7
1
1
1
1
2
2
10
10
8
5
11
5
5
5
5
5
5
11
11
11
11
11
11
11
5
9
5
5
5
5
5
5
11
11
11
11
11
11
9
2
8
8
8
6
2
8
7
8
8
12
9
6
5
3
3
6
6
9
10
8
8
9
1
3
6
9
11
4
3
3
3
3
3
3
12
8
12
12
8
3
3
3
12
12
12
3
7
7
10
10
10
10
7
7
7
7
10
10
10
10
7
7
7
7
4
4
4
4
4
1
11
1
4
4
4
1
6
6
1
11
2
5
5
5
5
5
5
5
11
11
11
11
11
11
11
11
11
5
11
9
5
5
5
5
5
5
5
11
11
11
11
11
11
11
2
8
2
2
2
2
2
2
2
8
8
8
8
8
8
8
8
2
2
2
2
2
2
2
8
8
8
8
8
8
8
6
9
5
3
3
12
2
2
6
9
3
9
6
2
2
3
9
3
3
12
10
12
9
9
9
8
8
3
12
3
12
6
9
9
2
10
10
10
7
7
10
9
7
7
10
10
4
1
4
4
4
4
1
1
1
4
4
4
4
4
12
1
1
6
5
11
3
1
5
5
11
5
9
2
8
2
2
2
2
2
2
8
8
8
8
8
8
8
8
8
8
12
8
2
2
2
2
2
2
2
2
2
2
2
8
8
8
8
8
8
8
8
9
3
3
6
6
9
6
5
9
6
9
9
9
9
12
3
12
5
5
3
3
6
12
12
12
6
3
3
3
3
12
12
5
12
12
10
7
9
10
3
1
4
9
9
4
4
4
4
1
1
1
1
1
1
6
4
4
4
4
4
4
4
4
1
1
1
1
1
1
11
6
6
5
5
5
5
5
11
11
11
11
11
11
11
11
6
5
5
5
5
5
5
5
5
5
11
11
11
11
11
11
11
11
8
2
8
8
8
6
12
2
12
12
12
11
9
8
9
6
3
3
3
3
4
12
9
6
6
3
6
6
9
6
2
9
3
12
9
9
3
6
6
6
6
4
4
9
6
6
6
9
6
6
SCALARS DislocationType int 1
LOOKUP_TABLE default
0
2
2
2
2
2
2
3
3
3
3
3
2
3
2
3
2
2
3
3
2
3
2
2
3
2
2
2
2
2
2
1
1
2
2
1
1
2
2
2
2
2
2
2
2
2
2
2
2
2
3
3
2
2
2
2
2
2
2
2
2
2
2
2
1
1
3
3
1
1
3
3
1
1
1
2
2
2
2
2
2
2
2
2
2
2
2
3
3
2
2
2
2
2
2
2
2
2
2
2
2
1
1
1
3
3
1
1
2
2
1
1
1
2
2
2
2
2
2
2
2
2
2
2
2
3
3
2
2
2
2
2
2
2
2
2
2
2
2
2
1
1
1
2
2
1
1
3
3
1
1
1
2
2
2
2
2
2
2
2
2
2
2
2
3
3
2
2
2
2
2
2
2
2
2
2
2
2
2
1
1
1
2
2
3
3
2
2
2
2
2
3
3
2
2
2
2
2
3
3
2
2
2
2
2
2
2
2
3
3
3
2
2
2
2
2
2
3
2
2
2
2
3
3
3
3
3
2
3
3
3
2
2
3
3
3
3
3
3
3
2
3
2
3
2
3
2
2
3
3
3
3
3
3
3
3
3
3
3
3
3
3
3
3
3
2
2
2
2
3
3
3
3
3
3
3
3
3
3
3
3
3
2
3
3
2
3
2
2
2
3
2
2
2
2
3
3
2
2
3
3
3
3
3
3
2
2
3
3
3
3
3
2
2
3
3
3
3
3
3
3
3
3
3
2
2
2
2
2
2
2
2
2
2
2
3
3
3
2
2
2
2
2
2
2
2
2
2
3
3
2
2
2
2
2
2
2
2
2
2
2
2
2
2
2
2
2
2
3
3
2
2
2
2
2
2
2
2
2
2
3
3
2
2
2
2
2
2
2
2
2
2
2
2
2
3
3
2
2
2
2
2
2
2
2
2
2
2
2
2
2
2
2
3
3
3
3
3
2
2
2
2
2
2
3
2
2
3
3
2
2
3
2
2
2
2
3
3
2
2
2
2
2
2
3
3
2
2
2
2
2
2
2
2
2
3
3
2
2
3
3
2
2
2
2
3
3
3
2
2
3
3
3
3
2
2
2
2
2
3
3
3
3
2
3
3
3
2
3
2
2
2
2
3
2
2
2
2
2
3
3
3
2
2
3
3
2
2
3
3
2
2
2
3
3
2
3
3
3
2
2
2
3
3
2
2
2
2
2
2
2
2
2
2
2
2
2
2
2
3
3
2
2
2
2
2
2
2
2
2
2
2
3
3
2
2
2
2
2
2
2
2
2
2
3
3
2
2
2
2
2
2
2
2
2
2
2
3
3
3
2
2
2
2
2
2
2
2
2
2
2
3
3
2
2
2
2
2
2
2
2
2
2
2
2
3
3
2
2
2
2
2
2
3
2
2
3
3
3
2
3
2
2
3
3
2
2
2
2
3
3
3
3
2
2
2
2
2
3
3
3
3
3
3
3
3
3
3
3
3
3
3
2
2
2
3
3
3
3
3
3
3
3
3
3
3
3
3
3
3
3
2
2
2
2
2
2
3
3
3
3
3
3
3
3
3
3
3
3
3
3
3
3
2
2
2
3
3
3
3
2
3
3
3
3
3
3
3
3
3
3
3
3
3
2
2
2
2
2
2
2
2
3
2
2
3
2
3
2
2
2
2
2
2
2
3
2
2
3
2
2
2
2
2
2
2
2
2
2
2
2
3
3
2
2
2
2
2
2
2
2
2
2
2
3
3
2
2
2
2
2
2
2
2
2
2
3
3
2
2
3
2
2
2
2
2
2
2
2
2
2
3
3
2
2
3
2
2
2
2
2
2
3
3
3
2
2
2
2
2
2
2
2
2
2
3
3
2
2
2
2
2
2
2
2
3
2
2
2
2
2
2
2
2
2
2
2
2
2
2
2
3
3
2
2
2
2
2
2
2
2
2
2
2
2
2
2
2
3
3
3
3
3
3
3
3
3
2
2
3
3
2
2
2
2
2
2
2
3
3
3
3
3
3
3
3
3
3
3
2
2
2
2
3
2
2
3
3
3
3
3
3
3
3
3
3
3
2
2
3
3
3
2
2
3
3
3
3
3
3
3
3
3
3
3
2
2
2
2
2
2
3
2
2
3
3
2
2
2
2
2
2
2
3
3
3
3
2
2
3
2
2
2
2
2
2
2
2
2
2
2
3
3
2
2
2
2
2
2
3
2
2
2
2
2
2
2
3
3
2
2
2
2
2
2
2
2
2
2
2
2
3
3
3
3
2
2
2
2
2
2
2
2
2
2
3
3
2
2
2
2
2
2
3
2
2
2
2
3
2
2
3
3
3
3
2
2
2
2
2
2
3
3
3
3
3
2
2
2
3
2
2
3
3
3
3
2
2
3
2
2
3
3
3
3
2
3
1
3
3
2
3
3
3
1
3
3
2
2
3
3
2
3
2
2
3
3
3
3
2
2
2
2
3
3
3
2
2
3
3
3
2
3
2
2
2
2
2
2
2
2
2
2
2
3
3
2
2
2
2
2
2
2
2
2
2
2
2
2
3
3
3
2
2
2
2
2
2
2
2
2
2
2
3
3
2
2
3
3
2
2
2
2
2
2
2
2
2
2
2
3
2
2
3
2
2
2
2
3
3
3
3
2
2
2
2
2
2
2
2
2
2
2
2
3
3
2
2
2
2
2
3
2
2
2
2
2
2
2
2
3
3
2
2
2
2
2
2
2
2
2
2
2
2
2
2
3
3
2
2
2
2
2
2
3
3
2
3
2
2
2
3
2
2
3
2
2
3
3
3
3
2
2
3
3
3
3
3
3
3
3
3
3
3
2
2
3
3
3
3
3
3
3
2
2
3
3
3
3
3
3
3
3
3
3
3
3
3
3
3
2
2
3
2
2
2
2
2
3
3
2
2
2
2
2
2
2
2
2
2
2
2
3
3
2
2
2
2
2
2
2
2
2
3
3
3
3
3
3
2
2
2
2
2
2
2
2
2
2
3
3
3
3
2
2
2
2
2
2
2
2
2
2
3
3
3
2
2
2
2
2
3
2
2
2
2
3
3
2
2
2
2
2
2
2
3
3
3
2
2
3
3
3
3
2
2
2
2
3
2
3
3
2
2
2
2
2
3
3
3
2
2
2
2
2
2
3
3
2
3
2
3
2
2
2
3
3
2
3
3
3
3
3
3
3
3
2
3
2
3
2
2
3
2
3
3
2
3
2
2
2
3
3
3
3
2
3
3
3
2
2
3
2
2
2
3
3
2
2
3
2
2
2
3
3
3
3
2
2
2
2
2
2
2
2
2
2
3
3
2
2
2
2
3
2
2
2
2
2
3
3
3
3
2
2
2
2
2
2
2
2
3
3
3
3
2
2
2
2
2
2
2
2
2
3
3
3
3
3
2
2
2
2
2
2
2
2
3
3
2
2
2
2
2
3
3
3
3
3
3
3
3
3
3
2
2
3
2
3
3
3
2
2
2
3
2
2
3
2
2
2
3
3
3
3
3
2
2
2
3
3
3
2
2
2
2
2
2
3
3
3
3
3
3
2
2
2
2
2
2
2
3
3
3
3
2
3
2
2
2
2
2
2
3
3
3
3
2
2
2
2
2
2
2
2
2
3
3
2
2
2
2
2
2
2
3
3
3
3
3
2
2
2
2
2
2
3
3
3
2
2
3
2
2
2
2
3
3
3
3
3
3
2
2
2
2
3
2
3
3
3
2
2
3
3
3
3
3
3
2
2
3
3
3
3
3
3
3
3
2
2
3
3
3
3
3
3
3
2
2
3
3
3
3
2
2
3
3
2
3
3
3
3
3
3
3
2
2
3
2
2
2
2
2
3
3
2
2
2
2
2
2
2
2
2
2
3
3
2
2
2
2
2
2
3
2
2
2
2
3
2
2
2
2
2
2
2
2
2
3
3
2
2
2
2
2
2
2
3
2
2
2
2
2
3
3
2
2
2
2
2
3
3
3
2
2
3
3
3
3
2
2
3
2
2
2
3
3
3
3
3
2
2
2
3
2
3
3
3
3
2
3
3
3
3
3
3
3
2
3
3
2
3
3
3
3
3
3
3
2
2
2
2
3
3
3
3
2
2
2
2
2
3
3
2
2
2
2
2
2
2
3
3
2
2
2
3
3
3
3
3
2
2
2
2
2
2
2
2
2
3
3
2
2
2
2
2
2
2
2
2
2
3
2
2
2
2
2
2
3
3
2
2
2
2
2
2
2
2
2
2
2
2
2
2
3
3
2
2
2
2
2
2
2
2
2
2
2
2
2
3
3
2
2
2
2
2
2
2
3
2
3
3
3
2
2
3
3
3
2
3
2
2
3
2
3
3
3
2
3
3
3
3
2
3
3
3
3
3
3
3
3
2
2
3
2
2
2
2
3
2
3
3
3
2
2
2
2
2
3
3
2
2
2
2
2
2
3
3
3
2
3
3
3
3
2
2
3
3
3
3
2
2
2
2
2
2
2
3
3
2
2
2
2
2
2
2
2
2
3
2
2
2
2
2
2
2
2
2
2
2
3
3
2
2
2
2
2
2
2
2
3
3
3
3
3
3
2
3
2
3
3
3
3
3
2
2
2
2
3
3
3
3
3
3
3
3
3
3
3
3
3
2
3
3
2
2
2
2
3
2
2
3
3
2
2
2
3
3
2
2
2
2
2
3
2
2
2
2
2
2
3
3
3
3
2
2
2
2
2
3
3
2
2
2
2
3
3
2
2
2
2
2
2
2
3
2
2
2
2
2
2
2
3
3
3
3
2
2
2
2
2
2
2
2
3
2
2
3
3
2
3
3
3
2
3
2
2
3
3
3
3
3
2
3
3
3
3
3
3
3
3
3
2
3
3
3
3
3
3
3
3
3
3
3
2
3
3
3
2
3
3
3
SCALARS CharacterAngle float 1
LOOKUP_TABLE default
0.0
54.997417
55.725572
64.836122
57.784628
59.777039
66.900941
89.731276
88.419921
84.625200
84.633465
80.423793
72.342416
75.360226
67.230692
75.228277
54.980302
55.207200
84.738919
76.585893
73.786384
83.986032
64.629324
56.307930
85.281910
47.585668
47.394133
69.338050
62.215172
65.900237
74.616459
5.370200
5.465712
48.758142
48.758142
9.767501
12.492183
15.575943
18.884761
22.485070
22.485070
26.244085
29.775834
33.260037
37.257079
40.915299
48.407706
54.672095
62.265001
71.713579
83.490509
83.789359
66.105499
58.907009
53.603996
49.700146
41.785811
37.095093
33.145408
29.832202
26.336643
22.606372
19.063536
15.803275
12.753207
10.105463
87.888138
88.698924
5.241913
5.694074
89.602000
89.641999
7.350776
10.234285
13.297053
16.620968
19.212645
20.973590
23.802793
27.327605
30.731794
33.564865
35.692502
39.252135
48.761086
54.677155
61.817023
86.719379
82.709419
63.375786
56.263911
50.665195
45.453376
40.428667
36.097624
32.339689
28.689443
25.624280
23.229491
20.363352
16.952718
13.638147
10.586842
7.702278
89.619498
88.560095
4.940681
4.549415
62.265001
54.672095
8.113388
10.957996
14.066770
17.442596
20.939604
23.864688
26.341204
29.511295
33.308469
37.295742
41.915935
47.338160
53.014216
59.285087
67.221953
86.027131
82.690369
64.518380
57.356693
52.058055
48.004747
40.080525
35.559428
35.559428
31.727903
28.487782
25.019395
22.204482
20.445204
17.848042
14.525484
11.414373
8.512889
58.895325
54.422912
4.431539
5.441033
85.886409
88.344804
7.057639
10.265969
13.393958
16.738081
20.157617
23.044557
25.523166
28.633460
32.308360
36.106166
40.509329
45.691546
50.990312
56.562367
63.640064
82.383123
87.178412
61.313768
54.024932
54.024932
48.040795
37.329344
35.056938
32.850484
29.981165
26.718462
23.330032
20.491989
18.629067
16.011516
12.698184
9.620361
7.140366
46.188331
45.043616
87.287681
88.441706
45.889873
50.012112
55.723126
63.258438
72.388332
82.816955
84.495262
73.519277
64.075005
56.316316
50.400262
45.615990
88.005559
86.718482
45.476566
45.202733
45.202733
48.555552
52.942847
58.965963
66.309856
74.559379
83.853127
84.933944
75.331539
66.819265
59.312069
53.166435
48.711980
45.109714
71.642092
75.221427
61.879366
56.240051
61.472458
56.007265
84.516445
85.604659
86.754805
87.712369
88.752219
70.222403
79.170081
89.936575
89.025903
52.806501
52.806501
87.987360
87.381269
86.622577
85.766726
83.761733
86.924341
85.540670
72.973215
82.101128
71.950298
76.064576
73.456592
82.333080
66.321809
73.179099
84.670947
86.335173
87.184735
87.932814
88.860962
77.951629
85.819986
89.392673
89.813663
76.519008
84.571581
88.668878
87.793372
87.029905
86.147406
85.357702
79.759850
74.938045
67.968942
73.503882
72.726975
84.970088
82.115509
80.825345
80.203078
79.705251
79.141781
78.389937
77.524284
76.624208
78.343814
82.166982
85.376162
82.484123
73.035242
82.572779
83.490509
71.713579
77.027875
70.905039
69.784291
74.310821
79.239252
62.603349
65.997260
65.050740
67.387170
87.234071
88.700221
62.520999
63.909752
86.232715
87.822673
89.865915
88.885608
87.933480
88.751475
68.466327
73.684131
77.960930
81.071116
86.983158
87.993475
88.151404
51.879295
48.513799
89.429800
89.208995
88.439709
87.342631
84.337333
82.835060
81.726172
80.278377
84.957792
84.957792
54.130675
52.251460
52.380024
58.416041
47.317669
47.486466
49.307895
53.519811
58.799547
65.458609
73.273712
82.041892
86.782471
76.473227
67.612307
60.184249
54.373141
49.790954
47.734315
47.506775
49.967784
55.354388
62.346942
70.863302
80.518234
86.673128
74.597851
64.461055
56.286440
50.137170
23.040479
22.292032
52.229772
54.981728
22.360888
25.169400
28.576529
32.633368
37.117131
42.118427
47.822724
54.364001
62.053149
71.413444
82.950715
82.883863
71.528083
62.269704
54.605802
47.963894
42.188337
37.153284
32.631423
28.540288
25.104798
22.593802
87.092965
88.617178
22.529957
22.500634
23.179694
25.999808
29.055645
32.824299
37.126245
41.841316
46.714968
51.956793
58.054010
65.046685
73.189615
83.210482
84.145161
73.857550
65.342016
58.097018
51.904460
46.562573
41.600131
36.865932
32.596810
28.869979
25.834181
36.356087
36.568035
54.958407
55.200749
60.207466
67.337316
75.522373
83.970007
84.857186
84.500999
75.292327
67.203357
60.143275
54.968438
55.254991
61.199469
68.271150
76.172268
60.488559
67.597142
85.031181
84.781559
66.073143
59.228805
76.014540
68.165176
61.125217
48.241931
48.287034
88.850212
88.850212
50.081416
54.757845
62.539139
72.452199
57.918914
63.043200
81.913378
84.282841
71.087587
61.913272
54.680124
49.159845
48.281917
48.188816
54.256061
59.814949
67.193465
76.001669
85.943399
74.493527
66.245615
83.739546
76.127871
69.194822
62.996844
57.730565
53.526010
78.826108
80.011717
84.680459
74.352931
68.161314
76.746099
83.917854
89.218449
89.961884
52.489857
56.848980
55.141740
60.867573
73.630954
84.341694
75.454138
81.406486
85.346842
74.290409
86.656043
86.589382
80.610868
49.971200
89.262284
57.714204
64.905691
53.221847
57.686953
83.798377
74.643780
73.938662
73.368517
68.059752
60.899119
88.465255
87.250314
83.381160
56.645091
61.177647
89.095973
88.604290
69.127664
62.874913
85.129617
77.194978
43.978061
53.762459
59.608114
88.490834
89.633893
72.480050
77.142044
87.134085
76.016761
68.324895
66.624646
74.821066
88.761617
89.349621
65.211176
58.640567
43.942123
40.673493
41.870773
50.013297
57.501387
62.917837
45.870295
45.709705
46.474411
50.891002
56.683490
64.414404
73.657084
84.156681
83.421953
72.965584
63.706204
56.018415
50.313096
46.078202
45.802770
45.652856
48.656611
54.503294
62.368138
72.148893
83.584919
82.801084
71.571119
62.021639
54.304049
48.565692
46.467309
46.362464
47.505283
53.077390
60.637203
70.419487
82.256347
83.321679
71.235657
61.207531
53.455975
47.791272
46.332456
46.263498
48.072487
52.445833
58.360500
65.850552
74.446088
84.066572
84.678956
75.016183
66.409644
58.856688
52.853511
48.417345
47.599457
47.527216
48.129406
51.893370
57.512231
64.914801
73.689556
83.541769
84.573470
74.369529
65.382896
57.858576
52.146708
48.288456
47.640611
47.620098
48.087727
51.879337
57.495464
64.878515
73.679256
83.553119
84.588876
74.316842
65.254862
57.683022
51.915256
48.083296
56.027149
85.963146
34.143949
34.201695
83.376057
77.003064
75.163425
67.721888
89.941177
55.841604
55.882288
89.480685
88.084988
61.055217
68.110050
53.908694
48.211573
82.750339
85.960191
85.060617
75.872601
72.789597
63.809992
63.227254
57.862884
72.276161
77.883324
81.399963
84.463132
85.028976
85.914784
87.549233
88.542077
89.586921
89.363153
88.680731
88.279667
76.008027
87.527372
86.684693
54.883582
59.486915
73.209746
76.672001
80.877194
79.465668
79.721319
81.260914
86.461975
87.708842
88.563256
89.457864
89.538401
88.760603
88.370886
85.869125
78.069314
87.668415
86.872829
66.623635
72.132969
64.826881
57.939104
53.828778
59.890224
85.449841
86.999517
87.710612
88.239437
88.868503
89.244615
89.943023
82.253898
85.257476
89.274406
88.680114
88.080115
87.232902
86.404601
81.537678
84.404317
50.607744
47.422810
73.357977
76.669461
75.226911
82.189760
81.598435
72.484559
85.564614
86.532028
87.470078
88.194473
88.672695
89.110525
89.231075
89.731163
89.426826
88.647673
87.861514
86.974171
86.039530
53.367197
57.657521
51.659579
52.553167
53.547224
58.727592
65.980082
74.620374
84.330332
51.037792
48.111191
84.298970
67.093451
75.166225
58.796119
53.707526
51.793295
52.576748
58.278201
65.680520
74.410043
84.202060
53.701025
58.639508
84.251299
53.884810
59.031439
74.414861
65.711623
58.304440
46.260930
46.305621
47.108852
51.647013
57.417047
64.878395
73.607615
83.270769
84.935750
74.602903
65.641432
58.006227
52.015893
47.264474
46.658990
46.288159
48.265567
53.931352
61.438697
70.729853
81.783716
84.661126
73.155433
63.329826
55.359773
49.386388
50.103362
50.049065
53.620899
58.912072
65.714459
73.885622
83.327457
85.165025
67.627850
60.477154
75.363080
66.963250
59.864627
54.277343
50.213272
50.028864
50.699781
55.010059
60.154833
66.804604
74.663671
83.729481
85.277306
63.015505
69.527026
75.912064
67.828241
60.956489
55.604760
51.140243
22.317986
22.198336
85.256011
85.785667
87.099647
23.316811
26.050879
29.927633
34.299726
39.203805
44.573186
50.055984
55.848706
62.871929
71.946111
83.495160
82.930511
51.330813
46.591902
38.893539
34.168915
29.796644
26.016076
23.312172
74.881822
83.987856
48.242270
51.801862
22.528005
22.241618
24.681639
27.433288
31.044152
35.040626
39.640899
44.645418
49.464621
54.542208
60.861343
67.570076
74.215635
83.664354
83.639556
73.973821
66.522495
59.822948
53.940437
49.042405
44.273836
39.319202
34.804954
30.875926
27.234369
23.648493
74.314738
72.407137
39.946769
39.320872
87.923835
89.029596
84.124213
85.661611
86.780326
87.764457
88.558761
89.755315
88.642181
47.672671
49.104398
87.186087
85.653439
53.466222
73.873838
73.623203
55.173766
60.429423
65.362802
71.933426
84.232336
84.963814
85.772367
86.459658
86.413098
87.696025
89.617848
89.276993
87.606335
85.691021
83.326527
74.262719
65.198731
73.934604
66.305988
75.153700
54.985511
60.885742
87.748500
88.528224
89.216040
89.741920
89.648021
89.205547
88.625911
87.956980
86.585938
82.183109
77.356429
69.941686
72.842556
78.575299
86.184366
87.852466
54.467527
58.985456
85.842673
87.398293
88.089200
88.866681
89.505979
89.816053
89.143307
88.522002
87.765396
86.822857
80.939381
65.413531
74.476240
50.075540
50.322821
52.296907
73.463091
83.371157
52.542841
57.587890
84.314620
75.159194
66.894985
73.839052
51.983638
50.277045
50.371390
53.509226
57.766227
76.239854
84.279955
85.094706
85.695899
56.872580
61.299876
76.992610
57.714238
53.290580
40.214506
40.997539
23.286156
41.437090
45.597027
50.904203
57.556055
65.601758
74.933812
85.535012
83.189211
74.805627
67.241466
60.542210
54.787375
49.721313
45.432777
86.780345
40.735670
40.735670
43.591454
48.302449
54.575939
62.451234
72.143768
83.579906
82.750727
71.543764
62.070451
54.293844
48.101844
43.448346
40.045127
47.629533
47.587909
51.678585
56.126318
61.644496
68.310191
75.959769
84.281123
85.567694
76.478382
68.417199
61.439073
55.726760
51.155195
47.763234
47.814005
48.408256
53.998972
61.474797
71.034900
82.530957
83.406235
71.809575
62.149483
54.607291
49.008438
51.642377
51.524635
84.037635
73.458147
66.376092
74.919344
71.547798
80.081425
49.300999
48.409459
84.336074
84.936072
86.441196
76.458692
69.374852
51.307369
51.270571
53.113982
58.411676
65.485399
87.456516
85.889181
79.042278
83.600487
78.453070
72.086096
74.602729
66.869627
84.526653
70.577137
74.553823
88.719749
87.418530
86.944228
87.670403
57.068000
63.999557
86.749471
57.683615
54.487055
84.336863
85.846281
88.220835
87.592126
74.720172
75.581596
7.172188
86.184284
88.101433
60.189758
88.701531
87.579041
87.478291
7.801578
78.380224
86.736880