# vtk DataFile Version 3.0
Dislocation network (FCC crystal) exported from OpenDiS
ASCII
DATASET UNSTRUCTURED_GRID
POINTS 4262 FLOAT
0.00000000e+00 0.00000000e+00 0.00000000e+00
1.95620000e+04 0.00000000e+00 0.00000000e+00
0.00000000e+00 1.95620000e+04 0.00000000e+00
0.00000000e+00 0.00000000e+00 1.95620000e+04
1.95620000e+04 1.95620000e+04 0.00000000e+00
1.95620000e+04 0.00000000e+00 1.95620000e+04
0.00000000e+00 1.95620000e+04 1.95620000e+04
1.95620000e+04 1.95620000e+04 1.95620000e+04
2.20595102e+03 6.16346647e+03 1.26043934e+04
2.30044661e+03 6.05880056e+03 1.25942231e+04
2.20595102e+03 6.16346647e+03 1.26043934e+04
2.33521464e+03 6.30417691e+03 1.26158402e+04
6.02689999e+03 6.61982430e+03 1.49027107e+04
6.10778625e+03 6.60663168e+03 1.49967896e+04
6.02689999e+03 6.61982430e+03 1.49027107e+04
5.94355548e+03 6.62542052e+03 1.48137700e+04
2.49734909e+03 5.87657760e+03 1.26089026e+04
2.39613009e+03 5.96390306e+03 1.25950091e+04
2.49734909e+03 5.87657760e+03 1.26089026e+04
2.59844589e+03 5.80317656e+03 1.26365984e+04
1.17651050e+04 8.54329848e+03 1.82695377e+04
1.16844131e+04 8.60667843e+03 1.81254659e+04
1.17651050e+04 8.54329848e+03 1.82695377e+04
1.18522151e+04 8.49191392e+03 1.84080324e+04
2.69449423e+03 5.74746130e+03 1.26769314e+04
2.81114032e+03 5.81741014e+03 1.26302342e+04
2.69449423e+03 5.74746130e+03 1.26769314e+04
2.59844589e+03 5.80317656e+03 1.26365984e+04
7.59590871e+03 9.53422083e+03 2.22450560e+03
7.60748560e+03 9.63275785e+03 2.31146573e+03
7.59590871e+03 9.53422083e+03 2.22450560e+03
7.59691714e+03 9.43587264e+03 2.12514898e+03
2.93277212e+03 5.91111474e+03 1.26023070e+04
2.81114032e+03 5.81741014e+03 1.26302342e+04
2.93277212e+03 5.91111474e+03 1.26023070e+04
3.05271652e+03 6.02272066e+03 1.25939685e+04
1.12517957e+04 1.76649819e+04 1.27368285e+04
1.13507297e+04 1.77647138e+04 1.27360306e+04
1.12517957e+04 1.76649819e+04 1.27368285e+04
1.11438456e+04 1.75676191e+04 1.27262412e+04
3.18303743e+03 6.16471841e+03 1.26056453e+04
3.05313182e+03 6.30614207e+03 1.26171634e+04
3.18303743e+03 6.16471841e+03 1.26056453e+04
3.05271652e+03 6.02272066e+03 1.25939685e+04
1.03664321e+04 4.38273061e+03 1.84793532e+04
1.04819655e+04 4.48461639e+03 1.84657055e+04
1.03664321e+04 4.38273061e+03 1.84793532e+04
1.02499182e+04 4.29695376e+03 1.85100903e+04
2.93291558e+03 6.41789658e+03 1.26087017e+04
3.05313182e+03 6.30614207e+03 1.26171634e+04
2.93291558e+03 6.41789658e+03 1.26087017e+04
2.81080901e+03 6.51164525e+03 1.25803438e+04
8.12542686e+03 5.26297307e+03 1.45799521e+04
8.11997798e+03 5.35822258e+03 1.46806505e+04
8.12542686e+03 5.26297307e+03 1.45799521e+04
8.12003458e+03 5.16864997e+03 1.44910213e+04
2.69449423e+03 6.58077074e+03 1.25331545e+04
2.81080901e+03 6.51164525e+03 1.25803438e+04
2.69449423e+03 6.58077074e+03 1.25331545e+04
2.57687955e+03 6.51004645e+03 1.25800449e+04
1.58864583e+04 8.25405596e+03 5.02335300e+02
1.57770576e+04 8.26505464e+03 6.00737255e+02
1.58864583e+04 8.25405596e+03 5.02335300e+02
1.60011014e+04 8.22547642e+03 4.16271712e+02
2.45486194e+03 6.41584911e+03 1.26078651e+04
2.57687955e+03 6.51004645e+03 1.25800449e+04
2.45486194e+03 6.41584911e+03 1.26078651e+04
2.33521464e+03 6.30417691e+03 1.26158402e+04
6.08002955e+03 1.50194843e+04 8.32169881e+03
6.18373616e+03 1.49272086e+04 8.33312977e+03
6.08002955e+03 1.50194843e+04 8.32169881e+03
5.98149700e+03 1.51199404e+04 8.32362243e+03
1.68050128e+04 1.67694388e+04 1.32225881e+04
1.67895739e+04 1.66922862e+04 1.33151796e+04
1.68050128e+04 1.67694388e+04 1.32225881e+04
1.67905135e+04 1.68416977e+04 1.31358299e+04
1.19600167e+04 8.45564743e+03 1.72281328e+04
1.20155263e+04 8.41820841e+03 1.73210814e+04
1.19600167e+04 8.45564743e+03 1.72281328e+04
1.18901348e+04 8.48411460e+03 1.71297837e+04
1.67512272e+04 1.69873226e+04 1.29509186e+04
1.67736832e+04 1.69117300e+04 1.30489672e+04
1.67512272e+04 1.69873226e+04 1.29509186e+04
1.67168754e+04 1.70794322e+04 1.28244573e+04
1.67168754e+04 1.70794322e+04 1.28244573e+04
1.66722621e+04 1.71740062e+04 1.26852700e+04
1.66722621e+04 1.71740062e+04 1.26852700e+04
1.66167822e+04 1.72675473e+04 1.25362490e+04
1.66167822e+04 1.72675473e+04 1.25362490e+04
1.65481436e+04 1.73592470e+04 1.23759107e+04
1.65481436e+04 1.73592470e+04 1.23759107e+04
1.64729451e+04 1.74387851e+04 1.22211741e+04
1.64729451e+04 1.74387851e+04 1.22211741e+04
1.64055206e+04 1.74961925e+04 1.20963421e+04
1.63279164e+04 1.75497826e+04 1.19651478e+04
1.64055206e+04 1.74961925e+04 1.20963421e+04
1.63279164e+04 1.75497826e+04 1.19651478e+04
1.62302471e+04 1.76016712e+04 1.18155899e+04
1.62302471e+04 1.76016712e+04 1.18155899e+04
1.61664294e+04 1.76272271e+04 1.17262164e+04
1.59749222e+04 1.76723759e+04 1.14895603e+04
1.60965290e+04 1.76489153e+04 1.16346277e+04
1.59749222e+04 1.76723759e+04 1.14895603e+04
1.58440196e+04 1.76786377e+04 1.13523960e+04
1.57064506e+04 1.76653615e+04 1.12281032e+04
1.58440196e+04 1.76786377e+04 1.13523960e+04
1.57064506e+04 1.76653615e+04 1.12281032e+04
1.55631146e+04 1.76296785e+04 1.11204501e+04
1.54204365e+04 1.75702873e+04 1.10371633e+04
1.55631146e+04 1.76296785e+04 1.11204501e+04
1.54204365e+04 1.75702873e+04 1.10371633e+04
1.53157437e+04 1.76142234e+04 1.10979200e+04
1.50678472e+04 1.76691326e+04 1.12909074e+04
1.52029998e+04 1.76474970e+04 1.11773904e+04
1.50678472e+04 1.76691326e+04 1.12909074e+04
1.49602578e+04 1.76724037e+04 1.13952255e+04
1.48778597e+04 1.76664972e+04 1.14835302e+04
1.49602578e+04 1.76724037e+04 1.13952255e+04
1.48778597e+04 1.76664972e+04 1.14835302e+04
1.48036196e+04 1.76547466e+04 1.15695209e+04
1.46132633e+04 1.75937320e+04 1.18208919e+04
1.47244417e+04 1.76351776e+04 1.16682679e+04
1.46132633e+04 1.75937320e+04 1.18208919e+04
1.45127636e+04 1.75399244e+04 1.19751991e+04
1.45127636e+04 1.75399244e+04 1.19751991e+04
1.44372477e+04 1.74873320e+04 1.21033075e+04
1.43713182e+04 1.74311777e+04 1.22253913e+04
1.44372477e+04 1.74873320e+04 1.21033075e+04
1.43713182e+04 1.74311777e+04 1.22253913e+04
1.42960999e+04 1.73518937e+04 1.23798936e+04
1.42960999e+04 1.73518937e+04 1.23798936e+04
1.42274053e+04 1.72605697e+04 1.25399121e+04
1.42274053e+04 1.72605697e+04 1.25399121e+04
1.41718608e+04 1.71676711e+04 1.26883552e+04
1.41718608e+04 1.71676711e+04 1.26883552e+04
1.41270680e+04 1.70739231e+04 1.28268960e+04
1.41270680e+04 1.70739231e+04 1.28268960e+04
1.40923883e+04 1.69825199e+04 1.29529789e+04
1.40923883e+04 1.69825199e+04 1.29529789e+04
1.40703390e+04 1.69102056e+04 1.30473425e+04
1.43887212e+04 1.60585149e+04 1.42863730e+04
1.44649995e+04 1.59971524e+04 1.44240138e+04
1.43887212e+04 1.60585149e+04 1.42863730e+04
1.43227281e+04 1.61237387e+04 1.41551560e+04
1.40358603e+04 1.67555547e+04 1.32364722e+04
1.40483299e+04 1.66911474e+04 1.33133492e+04
1.40358603e+04 1.67555547e+04 1.32364722e+04
1.40503300e+04 1.68281559e+04 1.31494012e+04
6.81538543e+03 1.51234499e+04 8.31826362e+03
6.89819021e+03 1.52163583e+04 8.32836728e+03
6.81538543e+03 1.51234499e+04 8.31826362e+03
6.71595023e+03 1.50219184e+04 8.31616733e+03
1.40699953e+04 1.65999396e+04 1.34262224e+04
1.40483299e+04 1.66911474e+04 1.33133492e+04
1.40699953e+04 1.65999396e+04 1.34262224e+04
1.40989960e+04 1.65065795e+04 1.35485831e+04
1.40989960e+04 1.65065795e+04 1.35485831e+04
1.41386585e+04 1.64073343e+04 1.36874909e+04
1.41386585e+04 1.64073343e+04 1.36874909e+04
1.41894535e+04 1.63076046e+04 1.38380156e+04
1.41894535e+04 1.63076046e+04 1.38380156e+04
1.42528933e+04 1.62093036e+04 1.39997563e+04
1.42528933e+04 1.62093036e+04 1.39997563e+04
1.43227281e+04 1.61237387e+04 1.41551560e+04
1.44649995e+04 1.59971524e+04 1.44240138e+04
1.45630044e+04 1.59357544e+04 1.45834166e+04
1.45630044e+04 1.59357544e+04 1.45834166e+04
1.46698145e+04 1.58873731e+04 1.47386080e+04
1.48741755e+04 1.58381512e+04 1.49921910e+04
1.47648230e+04 1.58581187e+04 1.48628709e+04
1.48741755e+04 1.58381512e+04 1.49921910e+04
1.50024992e+04 1.58321632e+04 1.51265026e+04
1.50024992e+04 1.58321632e+04 1.51265026e+04
1.51242744e+04 1.58432169e+04 1.52372242e+04
1.54204365e+04 1.59387539e+04 1.54378493e+04
1.52643011e+04 1.58755627e+04 1.53449050e+04
1.54204365e+04 1.59387539e+04 1.54378493e+04
1.55084390e+04 1.59011552e+04 1.53874455e+04
1.58565802e+04 1.58388906e+04 1.51015690e+04
1.57341417e+04 1.58458455e+04 1.52170525e+04
1.58565802e+04 1.58388906e+04 1.51015690e+04
1.59816357e+04 1.58488585e+04 1.49665455e+04
1.59816357e+04 1.58488585e+04 1.49665455e+04
1.60816703e+04 1.58698827e+04 1.48454867e+04
1.62752664e+04 1.59473234e+04 1.45744498e+04
1.61691730e+04 1.58983593e+04 1.47295075e+04
1.62752664e+04 1.59473234e+04 1.45744498e+04
1.63725282e+04 1.60086214e+04 1.44158901e+04
1.63725282e+04 1.60086214e+04 1.44158901e+04
1.64477427e+04 1.60692164e+04 1.42800807e+04
1.65130218e+04 1.61334160e+04 1.41506020e+04
1.64477427e+04 1.60692164e+04 1.42800807e+04
1.65130218e+04 1.61334160e+04 1.41506020e+04
1.65828717e+04 1.62180517e+04 1.39961164e+04
1.65828717e+04 1.62180517e+04 1.39961164e+04
1.66466157e+04 1.63151962e+04 1.38352279e+04
1.66466157e+04 1.63151962e+04 1.38352279e+04
1.66978581e+04 1.64137456e+04 1.36854360e+04
1.66978581e+04 1.64137456e+04 1.36854360e+04
1.67382629e+04 1.65123455e+04 1.35464313e+04
1.67382629e+04 1.65123455e+04 1.35464313e+04
1.67679779e+04 1.66051475e+04 1.34239142e+04
1.67679779e+04 1.66051475e+04 1.34239142e+04
1.67895739e+04 1.66922862e+04 1.33151796e+04
7.85904046e+03 1.84631862e+04 4.65492392e+03
7.95625954e+03 1.84637173e+04 4.75161186e+03
7.85904046e+03 1.84631862e+04 4.65492392e+03
7.76524422e+03 1.84735394e+04 4.55077447e+03
9.81289948e+03 1.58658571e+04 3.69957998e+03
9.86754513e+03 1.58584173e+04 3.74678581e+03
9.81289948e+03 1.58658571e+04 3.69957998e+03
9.67185887e+03 1.58442038e+04 3.58019265e+03
2.53806024e+03 1.20895574e+04 1.35922665e+03
2.51337236e+03 1.21544479e+04 1.44880499e+03
2.53806024e+03 1.20895574e+04 1.35922665e+03
2.55858611e+03 1.20173549e+04 1.26649824e+03
9.55943807e+03 1.58215792e+04 3.49039638e+03
9.67185887e+03 1.58442038e+04 3.58019265e+03
9.55943807e+03 1.58215792e+04 3.49039638e+03
[...]
CELL_DATA 2128
SCALARS SlipSystemID int 1
LOOKUP_TABLE default
0
10
7
4
4
10
10
6
6
7
10
8
8
7
7
5
5
10
7
7
7
10
10
8
8
10
7
1
1
7
7
10
10
1
4
6
6
4
4
4
4
4
4
4
4
4
4
4
4
4
4
4
1
1
1
1
1
1
1
1
1
1
1
1
1
1
1
4
4
4
1
7
7
4
4
4
4
4
4
4
4
4
4
4
4
1
1
1
1
1
1
1
1
1
1
1
1
1
1
4
4
11
5
8
8
5
5
5
5
5
5
5
5
5
5
5
5
5
5
11
11
11
11
11
11
11
11
11
11
11
11
11
11
2
2
5
11
3
3
5
5
5
5
5
5
5
5
5
5
5
5
5
5
5
5
11
11
11
11
11
11
11
11
11
11
11
11
11
11
11
12
12
8
2
9
9
2
2
2
2
2
2
8
8
8
8
8
8
3
3
2
8
2
2
2
2
2
2
2
8
8
8
8
8
8
8
9
6
8
8
7
7
6
6
6
6
6
1
1
6
9
6
6
9
9
9
9
9
5
5
9
6
6
6
12
12
6
6
6
6
6
9
9
9
6
8
8
9
9
9
9
9
9
2
2
3
12
3
3
3
3
3
3
3
3
12
12
12
12
12
12
12
12
12
12
12
12
12
12
12
12
12
12
3
2
2
3
3
3
3
3
3
3
3
3
3
3
3
12
9
9
12
12
12
12
12
12
12
12
6
6
10
10
10
7
10
10
10
10
10
10
7
7
7
7
7
7
7
10
10
10
10
10
10
7
7
7
7
7
4
12
12
4
4
4
4
4
4
4
4
4
4
4
1
1
1
1
1
1
1
1
1
1
1
6
6
4
4
4
4
4
4
4
4
4
4
4
4
4
1
1
1
1
1
1
1
1
1
1
1
6
6
5
11
5
5
5
2
2
5
11
3
3
11
11
11
11
5
5
5
5
9
9
5
11
4
11
11
11
8
2
6
6
2
2
2
8
8
8
2
8
8
8
8
8
2
2
2
2
2
2
11
8
8
8
8
8
8
9
8
8
1
1
4
4
6
9
3
3
10
10
3
3
6
9
6
6
9
9
4
6
9
8
4
4
5
5
3
12
2
2
3
3
12
12
7
7
3
12
1
1
5
11
12
12
7
7
3
12
8
8
3
3
12
12
10
10
3
12
11
11
3
3
12
12
5
5
2
2
10
7
10
10
10
10
10
10
7
7
7
7
7
7
7
10
10
10
10
10
10
7
7
7
7
7
4
1
4
4
4
4
4
1
1
1
1
1
1
4
4
4
4
4
4
4
1
1
1
1
1
1
11
5
5
5
5
5
5
11
11
11
11
11
11
5
5
5
5
5
5
5
11
11
11
11
11
11
2
10
10
2
2
8
8
8
2
6
8
10
10
4
4
2
2
2
2
8
8
1
1
9
4
11
11
6
6
6
6
6
9
9
9
9
9
3
3
12
12
9
6
9
10
6
6
6
6
6
9
9
9
9
3
3
9
9
12
3
2
2
6
6
3
3
3
3
3
3
12
12
12
12
12
12
12
3
3
3
3
12
2
2
2
2
3
3
3
3
12
3
12
12
12
12
9
9
3
3
10
7
10
10
10
10
12
12
7
7
7
7
7
7
10
10
10
10
10
7
7
7
9
9
7
7
7
1
4
4
4
4
4
1
1
1
1
1
1
1
4
4
4
4
4
4
1
1
1
1
1
5
11
5
5
5
5
5
9
9
11
3
11
11
11
11
11
5
5
5
5
5
5
5
1
11
1
1
11
11
11
11
11
8
2
3
3
8
2
2
2
2
2
2
2
2
2
8
8
8
8
8
8
8
8
8
9
6
6
2
8
2
2
2
2
2
2
2
2
2
2
2
8
8
8
8
8
8
8
8
8
8
6
7
7
12
12
6
6
6
6
6
9
9
6
6
9
9
9
9
6
8
8
6
6
6
6
6
9
9
11
9
3
3
3
3
3
12
10
10
6
6
3
3
3
3
3
3
12
12
12
12
12
7
7
4
4
3
3
3
3
3
3
12
12
12
12
12
1
1
3
10
7
10
10
10
10
10
1
1
7
3
7
7
7
10
10
10
4
9
7
12
12
7
7
7
7
7
4
1
12
12
4
4
4
4
4
4
4
1
1
1
1
1
1
1
1
3
3
1
4
4
4
4
4
4
4
4
1
1
1
1
1
1
1
11
5
5
5
5
5
5
11
11
11
11
11
11
11
5
5
5
5
5
5
11
11
11
11
11
8
1
1
2
2
11
11
8
12
12
8
8
8
8
2
8
2
2
2
8
2
2
8
8
8
5
5
9
6
3
9
9
6
9
10
10
11
2
10
10
9
8
8
7
7
7
7
6
9
1
3
4
4
12
5
5
12
3
8
8
12
11
11
8
8
12
6
11
11
10
10
12
3
2
2
9
8
8
4
4
7
10
10
10
10
10
10
7
7
7
7
7
7
7
9
10
7
10
10
10
10
10
10
10
7
7
7
7
7
7
7
4
4
4
5
3
1
1
1
4
8
8
4
4
9
9
6
9
3
3
1
1
11
5
5
5
5
5
11
11
11
11
11
11
5
6
6
5
5
5
5
5
5
11
11
11
11
2
8
2
2
2
2
2
2
2
8
8
8
8
8
8
8
8
2
12
2
2
2
2
2
2
8
8
8
8
8
8
8
9
6
12
12
7
7
8
8
9
6
3
3
1
9
9
9
6
9
5
5
9
9
6
9
9
9
9
9
6
3
3
3
12
3
12
12
12
12
12
12
12
3
2
2
3
3
3
3
3
3
12
12
12
12
12
12
8
8
10
7
10
10
10
10
10
7
7
7
7
7
7
10
10
10
10
10
10
10
7
7
7
7
7
7
4
1
4
4
4
4
4
4
1
1
1
7
7
1
1
1
1
1
1
4
4
4
4
4
4
4
1
8
1
1
1
1
5
11
5
5
5
5
5
5
11
11
11
11
11
11
11
5
5
5
5
11
11
11
11
11
2
2
2
2
2
12
12
8
10
10
8
8
8
8
9
2
2
2
6
8
3
3
5
6
7
7
6
6
6
6
6
9
10
10
9
9
9
9
9
9
12
12
9
6
9
9
6
6
6
6
6
4
9
9
3
9
4
4
12
6
6
9
9
12
7
7
6
6
1
1
2
2
12
3
7
10
10
10
6
3
12
3
4
10
10
5
5
3
7
10
12
1
1
5
5
7
7
9
9
4
4
4
4
1
1
1
1
5
1
4
4
4
4
1
1
1
1
11
5
9
9
11
5
5
5
11
11
11
11
5
5
5
5
5
5
11
1
1
11
11
11
11
2
8
2
2
2
2
2
2
9
8
8
8
8
8
8
8
2
2
2
2
2
2
9
8
1
1
8
8
8
8
6
1
3
3
5
5
6
9
9
9
6
12
12
9
3
3
6
9
8
8
9
9
6
6
6
6
3
12
6
6
5
12
12
12
6
9
9
6
6
4
4
12
12
10
3
9
9
10
7
10
10
10
10
10
7
6
7
7
7
7
7
10
10
10
10
6
6
7
7
7
7
1
4
4
4
4
4
1
4
4
1
1
1
1
4
4
4
4
4
4
1
1
1
1
1
5
11
10
10
5
12
12
11
5
7
11
11
11
11
7
5
9
11
1
11
11
10
10
2
6
12
8
12
12
8
8
2
2
2
1
1
8
4
12
9
12
12
6
6
9
5
6
6
8
9
11
2
2
6
3
3
12
9
9
1
3
8
3
12
12
10
9
9
9
6
10
11
11
10
10
10
10
10
10
7
7
7
7
7
10
10
10
10
10
10
10
10
7
7
7
7
7
7
7
7
4
1
9
1
1
4
1
1
5
11
5
5
5
5
5
5
11
11
11
11
11
11
11
5
6
6
5
5
5
5
5
5
11
11
11
11
11
11
12
2
2
2
3
8
10
8
2
2
2
2
2
8
8
8
12
12
6
9
2
2
9
7
9
11
1
1
9
6
6
10
6
6
12
3
3
3
3
3
3
12
12
12
12
11
11
3
9
3
3
3
3
12
12
3
3
11
11
10
10
10
10
7
7
7
7
11
10
9
10
10
10
10
7
7
7
7
12
4
4
4
1
8
9
9
4
4
4
1
1
5
6
5
5
5
5
5
5
5
5
11
11
11
11
11
11
11
11
11
5
11
5
5
5
5
5
5
5
11
11
11
11
11
11
2
8
2
2
2
2
2
2
2
8
8
8
8
8
8
8
8
2
2
2
2
2
2
2
2
8
8
8
8
8
8
8
6
9
4
3
7
8
9
6
5
6
6
5
11
9
9
9
3
8
8
9
9
3
12
3
3
3
10
4
4
7
7
10
10
12
4
4
9
7
4
1
4
4
1
2
1
1
4
4
4
1
1
2
6
5
11
11
11
1
1
5
5
5
11
11
11
6
6
2
8
3
2
2
2
2
2
2
2
2
2
8
8
8
8
8
8
8
8
8
9
2
12
2
2
2
2
2
2
2
2
2
2
8
8
8
8
8
8
8
8
9
3
3
9
6
6
9
6
11
11
3
3
3
3
12
12
12
9
12
3
3
3
3
12
12
12
12
10
10
7
10
10
3
3
10
7
7
7
1
1
4
4
4
4
4
4
4
4
1
1
1
1
1
4
4
4
4
4
4
4
4
1
1
1
1
1
1
1
5
6
5
5
5
5
5
5
11
11
11
11
11
5
5
5
5
5
5
5
5
11
11
11
11
11
11
11
11
11
2
6
8
2
2
4
4
6
6
6
9
12
12
3
3
5
12
4
6
1
9
12
12
6
3
12
3
12
6
9
6
3
9
9
9
3
3
6
3
6
6
9
12
SCALARS DislocationType int 1
LOOKUP_TABLE default
0
2
2
2
2
2
3
3
3
3
3
2
2
2
2
2
2
2
2
2
2
2
2
2
2
3
3
2
2
2
2
2
2
1
1
3
3
1
2
2
2
2
2
2
2
2
2
2
2
2
2
3
3
2
2
2
2
2
2
2
2
2
2
2
2
2
1
2
2
1
1
2
2
1
1
2
2
2
2
2
2
2
2
2
3
3
2
2
2
2
2
2
2
2
2
2
2
1
1
2
2
1
1
2
2
1
1
2
2
2
2
2
2
2
2
2
2
2
3
3
2
2
2
2
2
2
2
2
2
2
2
1
1
2
2
1
1
3
3
1
1
2
2
2
2
2
2
2
2
2
2
2
2
2
3
3
2
2
2
2
2
2
2
2
2
2
2
2
1
1
3
2
2
2
3
3
2
2
2
2
2
3
3
2
2
2
2
2
3
3
2
2
2
2
2
2
2
2
3
3
3
2
2
2
2
2
2
2
2
2
2
2
3
3
3
3
3
2
2
3
3
3
3
3
3
3
3
3
2
2
2
2
3
3
3
3
3
3
3
3
3
3
3
3
3
2
2
3
3
3
3
3
3
2
2
2
2
3
3
3
3
3
3
3
3
3
3
2
2
3
3
3
3
3
2
3
3
3
3
3
2
2
2
2
3
2
3
3
2
2
2
3
3
3
3
3
3
3
3
3
3
3
3
3
3
3
3
3
3
3
3
2
2
2
2
2
2
2
2
2
3
3
3
2
2
2
2
2
2
2
2
2
2
3
3
2
2
2
2
2
3
3
2
2
2
2
2
2
2
2
2
2
3
3
2
2
2
2
2
2
2
2
2
2
3
3
2
2
2
2
2
2
2
2
2
2
2
2
3
3
2
2
2
2
2
2
2
2
2
2
3
2
2
2
2
2
3
3
2
3
3
3
3
3
2
2
2
2
2
2
3
3
3
3
3
2
3
2
2
2
2
3
3
2
2
2
2
3
3
3
2
2
2
2
2
2
2
2
2
3
3
2
3
3
2
2
2
2
3
2
2
2
2
2
2
3
3
3
3
2
2
3
2
3
3
3
3
3
3
2
3
3
2
2
2
2
2
2
3
2
2
3
3
3
3
2
2
3
3
2
3
2
2
3
3
2
3
3
3
2
2
3
3
3
3
2
2
3
3
2
2
2
3
3
3
2
2
2
2
2
2
2
2
2
2
2
3
3
2
2
2
2
2
2
2
2
2
2
2
3
3
2
2
2
2
2
2
2
2
2
2
3
3
2
2
2
2
2
2
2
2
2
2
2
3
3
3
2
2
2
2
2
2
2
2
2
2
3
3
2
2
2
2
2
2
2
2
2
2
2
3
3
2
2
2
2
2
2
2
2
2
2
2
2
3
3
3
2
3
3
3
3
2
3
2
3
3
2
2
2
2
2
2
2
3
3
3
3
3
3
3
3
3
3
3
3
2
3
2
3
3
2
3
3
3
3
3
3
3
3
3
3
2
3
3
2
2
2
2
3
3
3
3
3
3
3
3
3
3
3
3
3
3
3
3
3
3
2
2
2
2
2
2
3
3
3
3
3
3
3
3
3
3
3
3
3
3
2
2
2
2
2
3
3
3
3
2
2
2
2
2
2
2
2
2
3
2
2
3
3
3
2
2
2
2
2
2
2
2
3
3
2
2
2
2
2
2
2
2
2
2
2
3
3
2
2
2
2
2
2
2
2
2
2
3
3
3
3
3
3
2
2
2
2
2
2
2
2
2
2
3
2
3
2
2
3
2
2
2
2
2
2
3
3
2
2
2
2
2
2
2
2
2
3
3
2
2
2
2
2
2
2
2
3
3
2
2
2
2
2
2
2
2
2
2
2
2
2
3
3
2
2
2
2
2
2
2
2
2
3
2
2
3
3
3
3
3
3
3
3
3
3
3
3
3
3
3
3
2
3
3
3
3
3
3
3
3
1
3
3
3
3
3
2
2
2
2
3
3
3
3
3
3
3
3
3
3
3
3
3
2
2
2
2
3
3
3
3
3
3
3
3
3
3
3
2
2
3
2
2
2
2
2
2
3
3
3
3
3
2
2
2
2
2
2
2
3
3
2
3
3
2
2
2
2
2
2
3
3
2
2
2
2
2
2
3
3
2
2
2
2
2
2
2
3
3
2
2
2
2
2
2
2
2
3
3
2
2
2
2
2
2
2
2
2
2
2
3
3
3
3
2
2
2
2
2
2
2
2
2
2
3
3
2
2
2
2
2
2
2
2
3
2
2
3
3
3
3
2
2
2
2
2
2
3
3
3
2
2
2
2
2
2
2
3
3
3
3
3
3
3
3
2
2
2
3
3
2
2
2
2
3
3
3
3
3
2
3
2
2
3
2
2
3
3
2
3
3
2
2
2
2
3
3
2
2
2
2
3
3
3
2
3
2
2
2
2
2
2
2
2
2
2
3
3
2
2
2
2
2
2
3
2
2
2
2
2
2
2
3
3
3
2
2
2
2
2
2
2
2
3
2
3
2
2
2
2
2
2
2
2
3
3
2
3
3
3
2
2
2
2
2
2
3
3
3
3
2
2
2
2
2
3
3
2
2
2
2
2
3
3
2
2
2
2
2
2
2
2
2
2
2
3
3
2
2
2
2
2
2
2
2
3
2
2
2
2
2
3
3
2
2
2
2
2
2
3
3
3
3
2
2
2
2
3
3
3
3
1
2
3
3
3
3
2
2
3
3
3
3
3
3
2
3
3
3
3
3
3
3
3
3
3
3
3
3
2
2
2
2
3
3
3
3
3
3
3
3
3
3
3
3
2
2
2
2
2
2
2
2
3
3
2
2
2
2
2
2
2
2
2
2
2
3
3
2
2
2
2
2
2
2
2
2
2
2
3
3
2
2
3
2
3
3
2
2
2
2
2
2
2
2
2
2
3
2
3
2
2
2
2
2
2
2
2
2
2
2
3
3
3
2
2
2
2
2
2
2
2
2
3
3
2
2
2
2
2
2
2
3
3
3
3
3
2
2
3
2
2
2
3
2
2
3
3
2
3
3
2
2
2
2
3
2
3
2
2
2
2
2
2
2
3
3
2
3
3
3
2
2
2
2
2
2
2
2
3
1
3
3
3
2
2
2
2
3
3
2
3
3
2
2
3
3
2
2
2
2
2
3
2
2
2
2
3
3
3
3
2
2
3
3
2
3
2
2
2
2
2
2
2
2
2
3
3
2
2
3
3
3
3
2
2
2
2
2
2
2
3
3
2
2
2
2
2
3
3
3
3
3
2
3
2
2
2
2
2
2
2
3
3
3
2
2
3
2
2
2
2
2
2
2
2
2
3
3
3
3
3
2
2
2
2
2
2
2
2
2
2
3
3
3
3
3
2
2
2
2
2
2
3
3
2
2
3
3
3
3
2
3
3
3
3
3
3
3
2
2
3
3
3
2
3
3
2
3
3
3
2
3
3
3
3
3
3
3
2
3
3
2
3
2
3
3
3
2
2
2
2
2
3
3
3
3
3
2
2
2
2
2
2
2
3
3
3
3
2
2
2
2
2
2
2
3
3
3
3
3
2
2
2
2
2
2
2
2
2
3
3
2
2
2
2
2
2
2
2
2
3
3
3
3
2
3
2
2
2
2
2
2
3
2
2
2
2
2
2
3
3
3
3
3
2
2
2
2
3
3
3
3
2
3
2
3
3
3
3
3
2
3
3
2
2
2
2
2
3
3
3
3
3
3
2
3
2
3
3
3
2
3
3
3
3
2
2
2
2
2
2
2
2
3
3
2
2
2
2
2
2
2
2
2
2
2
3
3
2
2
2
2
2
2
3
2
2
3
2
3
2
2
3
2
2
2
2
2
2
2
3
3
2
2
2
2
2
2
2
3
3
2
2
2
2
2
3
3
2
2
2
2
2
3
2
2
3
2
3
3
2
2
2
2
3
3
3
2
2
3
3
3
3
2
2
3
3
3
2
3
3
2
3
3
3
3
3
3
3
3
3
3
3
3
3
3
3
3
2
3
3
3
3
3
3
3
3
3
3
3
2
2
2
2
3
3
3
2
2
2
2
2
3
2
2
2
3
3
2
2
2
3
2
3
3
3
3
3
3
2
2
3
3
2
2
3
2
2
2
2
2
2
2
3
3
2
2
2
2
2
2
2
2
2
2
2
2
2
2
2
2
3
3
2
2
2
2
2
2
2
2
2
2
2
2
2
3
3
2
2
2
2
2
2
2
2
2
2
2
2
2
2
3
3
2
2
2
2
2
2
3
3
2
3
2
2
3
3
2
3
3
2
2
3
3
3
2
2
2
3
3
3
3
3
3
3
2
2
2
2
2
2
2
3
2
2
3
2
2
2
2
3
3
2
2
2
2
2
3
3
2
2
3
3
3
3
2
2
2
2
3
3
3
3
2
3
3
2
2
3
2
2
2
2
2
2
2
2
3
3
2
2
2
2
2
2
2
2
3
2
3
2
2
2
2
2
2
2
2
2
3
3
2
2
2
2
2
2
2
3
3
3
3
3
3
3
3
2
2
2
3
3
3
3
3
3
3
2
3
3
3
3
3
3
3
3
2
3
2
2
3
3
3
3
3
3
2
2
2
2
2
2
2
2
2
2
3
3
2
2
2
2
2
2
2
2
2
2
3
3
3
3
2
2
2
2
2
2
3
2
2
2
2
2
3
3
2
2
2
2
2
2
2
2
2
2
3
3
3
3
2
2
2
2
2
2
2
3
3
3
2
2
2
2
3
3
3
3
3
3
3
3
2
3
2
3
2
3
3
3
3
3
3
3
3
3
3
3
3
3
3
3
3
3
3
3
3
3
3
3
SCALARS CharacterAngle float 1
LOOKUP_TABLE default
0.0
54.945435
55.799824
52.559338
56.779875
67.273454
75.371231
86.031440
81.529140
83.434951
84.717291
66.169570
59.493826
72.660286
63.569128
60.398574
54.896140
55.794818
55.752492
66.205000
74.744550
63.615202
72.819231
57.242503
62.917607
83.785863
83.326932
65.237939
73.854617
72.563736
63.417369
65.768703
59.040743
8.952633
8.974584
83.595629
76.335252
12.625597
15.227968
18.291905
21.611600
25.253122
29.072359
32.652580
36.032583
40.022449
43.883549
51.336111
57.683141
65.018471
73.833558
84.476990
84.700354
68.569850
61.531573
56.570286
52.761016
44.777270
39.909649
35.898299
32.646830
29.129571
25.332295
21.733679
18.469091
15.439508
12.905265
33.580097
30.193935
8.691514
8.920437
54.312416
58.964947
10.418924
13.107764
16.090720
19.369650
22.906536
26.655357
37.552725
42.263567
51.754941
57.738579
64.707525
83.721586
85.197900
62.898489
56.202074
50.647125
42.008879
37.460536
33.556367
30.275796
26.837150
23.165250
19.666331
16.411624
13.443235
10.811430
60.271828
54.823596
7.210687
8.194904
44.526636
47.835681
10.967185
13.735622
16.808882
20.153002
23.774789
27.532455
31.071688
34.492242
38.592540
43.377530
53.002664
59.030286
65.887109
84.321601
84.942758
63.649619
57.056941
51.635324
43.041733
38.404595
34.473328
31.235562
27.755719
24.018051
20.468855
17.181355
14.111080
11.309542
26.321260
24.472778
7.921475
8.631477
89.666310
88.606981
10.143770
13.166246
16.229089
19.549972
22.956664
25.871935
28.316362
31.449129
35.226871
39.077976
43.548685
48.762859
53.971049
59.349947
66.320321
83.376616
83.955047
64.178885
57.094481
51.067324
41.556710
36.861453
32.921425
29.630454
26.157955
22.433578
22.433578
18.863017
15.549680
12.503631
10.136070
81.645668
74.438219
45.926319
45.458944
88.130203
89.143828
46.560637
50.472150
56.043159
63.414969
72.413003
82.871103
84.384679
73.302258
63.950719
56.267791
50.529333
46.512085
85.584196
81.311144
45.827635
45.433813
45.722760
49.118648
53.375417
59.298705
66.517874
74.668889
83.961606
84.966817
75.415891
67.041761
59.692285
53.700894
49.378584
45.875047
73.184428
73.300622
56.203017
63.683033
44.267731
43.626357
84.214830
85.806862
86.953614
87.922612
88.817797
24.059915
25.236715
89.972628
89.239968
86.256022
82.213740
88.014738
87.600939
86.690896
85.670697
84.063457
36.316870
35.083830
73.379957
74.384542
88.314695
86.803851
75.821720
84.052904
84.858918
86.099176
87.203784
87.940972
88.879421
83.820798
88.309908
89.539616
89.778168
51.402619
51.402619
88.767199
87.820814
86.873630
85.747556
83.882310
79.125497
74.455676
68.380354
72.968390
71.977735
81.823932
81.412819
81.931767
81.180563
80.919201
80.931178
81.327566
82.193164
82.780820
82.780820
65.619544
67.217912
83.191331
83.237557
87.126775
81.634666
75.724748
74.604889
83.118143
83.266240
88.759049
89.864284
75.839196
72.890579
68.752500
62.806773
62.556353
75.019133
66.959118
88.294349
87.430226
66.113085
70.261105
74.012543
77.896122
80.966022
88.234252
89.882634
88.967626
88.063079
86.512442
88.042023
87.613764
88.702131
86.976934
85.789207
84.589902
82.447138
81.669843
80.801080
79.723600
77.424280
89.721644
88.829754
40.604185
41.643488
47.643644
47.793284
49.993279
54.119729
59.307465
65.817235
73.472500
82.188265
86.746894
76.511549
67.847532
60.644164
54.979979
50.514331
47.976573
47.802071
50.310052
55.477964
62.269534
70.766357
80.610386
86.388934
74.194304
64.200134
56.325544
50.464484
24.536717
88.273966
89.017238
24.146911
26.852395
30.183260
34.199443
38.637305
43.575393
49.194027
55.644120
63.155727
72.133773
83.204402
83.163928
72.212223
63.302968
55.824569
49.305716
43.649090
38.699252
34.219519
30.169674
26.812129
24.323592
77.107607
78.462335
24.233470
24.774101
27.515679
30.493125
34.241562
38.502579
43.175964
47.981109
53.085792
59.108586
65.905978
73.615298
83.371273
84.255142
74.283447
66.374305
59.361593
53.131485
47.846690
42.943883
38.237137
33.999382
30.285603
27.332349
80.941085
73.932444
54.843548
55.139926
60.236767
67.293425
75.507740
84.626426
74.620159
84.843350
84.483275
86.048210
84.576470
75.280459
67.163054
60.176224
54.852386
55.195195
61.288010
68.306166
76.177707
87.676464
88.630054
85.053064
84.791859
72.744311
76.012511
68.190812
61.205735
48.358642
49.379076
80.163405
80.163405
55.336887
62.881864
72.536961
74.053904
83.641801
81.942229
84.337249
71.221217
62.269867
55.209720
49.803555
48.409234
48.418509
54.508575
59.937570
67.183280
75.903510
85.947216
47.449777
83.721143
76.066927
69.213870
63.129761
57.979661
53.871818
75.094651
57.035810
62.705640
55.222269
61.330417
48.704167
49.528276
88.995477
89.423680
89.308079
88.430697
56.319372
53.053581
78.834035
69.876177
75.122416
80.315277
89.874932
88.388385
81.673238
76.162516
48.994670
88.927611
89.846053
50.378869
48.015120
46.582205
48.183999
48.183999
74.479527
75.198599
64.037358
56.269126
83.249324
75.519833
85.931301
88.022259
58.472522
65.426532
88.001410
88.425477
73.229910
84.111691
74.476948
72.513914
86.111658
87.906472
74.515918
84.916069
75.709038
80.046270
56.046999
63.997692
79.953635
84.360058
88.928030
89.716519
68.830256
62.626445
87.905821
88.579339
63.352345
72.142272
73.161007
80.687633
82.925541
86.178859
48.575113
43.064499
57.273142
52.192687
46.137689
46.185984
47.141924
51.389843
57.030809
64.594822
73.671519
84.188133
83.419957
72.962931
63.867451
56.348136
50.792347
46.745621
46.037467
46.130725
49.322126
54.968168
62.641289
72.230148
83.618336
82.859640
71.715846
62.371318
54.836097
49.284079
46.703949
46.734664
48.249518
53.663645
61.015277
70.567319
82.319612
83.384013
71.439658
61.674359
54.143062
48.669136
46.645889
46.641126
48.734703
52.975844
58.705854
66.013078
74.480519
84.094468
84.739168
75.052802
66.554055
59.169374
53.339818
49.053362
48.114683
48.172024
52.493415
57.912936
65.130480
73.769835
83.617980
84.597845
74.389020
65.550970
58.231155
52.725564
48.304261
48.144218
48.144218
52.204760
57.698970
64.900740
73.593218
83.531924
84.576512
74.236700
65.286595
57.892567
52.261316
48.114683
56.245927
51.618722
48.606725
64.597957
74.096782
67.415344
74.172089
82.432549
85.186794
87.702270
72.361481
84.381838
76.055627
84.718892
77.034634
73.426769
77.257255
69.713570
84.749507
82.773047
72.852086
48.757975
50.592316
74.090571
46.904887
43.643408
49.247512
85.575364
87.446976
88.546368
89.603559
89.320906
88.607456
88.159583
87.847920
86.905179
86.253081
87.677593
85.519273
73.932392
81.318670
74.525165
75.689024
89.557145
60.409266
86.144395
87.286745
88.437885
89.556874
89.399445
88.719030
88.342339
87.607262
86.720571
82.050741
74.004982
88.247175
87.215319
74.276551
74.387541
60.109232
55.784839
89.976019
88.099855
86.265154
87.108971
87.937794
88.218409
88.925306
89.272945
89.783727
82.099389
85.880019
89.380698
88.730872
88.193870
87.357799
81.191161
85.956253
82.144387
74.152419
74.787300
62.312094
56.612050
52.413611
57.853016
87.058597
87.775221
88.237395
88.467756
89.701300
89.024085
89.408728
88.657300
88.076898
87.220814
83.427443
87.130420
85.687082
82.792220
52.640033
52.584924
58.762160
66.089282
74.602029
84.336096
83.804928
85.225369
84.334459
48.495789
50.659476
58.765077
53.920794
51.564798
52.679941
58.586453
65.903169
74.485399
84.218125
52.848291
58.326141
84.287279
88.020048
88.658856
74.461920
65.902362
58.589512
46.750928
52.422488
58.093419
65.319498
73.737127
83.280985
85.071303
74.812058
66.035954
58.526619
52.648220
48.180242
46.787628
46.789523
48.856233
54.283265
61.554975
70.739080
81.838806
84.523730
72.984337
63.331306
55.560586
49.800181
50.329621
49.995447
54.038654
59.181412
65.785413
73.817200
83.281219
82.565129
87.676464
85.120934
87.847808
75.156120
66.864017
59.970580
54.533878
50.408278
49.888647
51.163763
55.259238
60.344060
66.816410
74.534714
83.689868
46.374606
85.233355
66.545821
74.652993
75.741882
67.714613
61.001807
55.739883
51.475014
24.209017
23.905762
86.018047
86.014921
52.161391
25.138640
27.726047
31.577331
35.979072
40.731977
48.805387
54.052873
61.381733
83.886976
82.960551
73.440240
59.853092
52.819250
40.367668
35.756439
31.480366
27.717269
25.165831
85.050262
83.212677
74.614125
24.230823
24.008310
28.935032
32.501907
36.455218
41.012609
46.034940
50.863556
55.681509
61.937078
68.566416
74.484640
83.628398
83.579119
60.830136
55.020172
50.458687
45.696654
40.693282
36.226143
32.365390
28.837308
26.219215
86.556219
53.584228
58.043800
86.608172
88.117346
89.846432
89.744592
89.721777
89.603712
89.267680
89.272134
89.458016
89.513958
88.446063
89.418583
89.369365
78.856250
85.776741
81.693483
69.961673
82.031504
89.365084
89.964003
89.337239
88.648680
87.751738
87.880587
88.468078
8.351190
88.551416
85.978711
81.870133
84.159421
84.159421
74.583042
74.635171
53.563802
58.067122
87.379097
85.964829
87.344695
88.301900
86.558373
85.374874
89.089332
89.719375
89.577596
88.965300
88.482225
87.786679
86.891947
44.292239
44.377894
52.059474
48.724981
75.468890
86.585890
87.624426
88.387350
88.912309
89.570141
89.610229
89.034264
88.751171
88.062120
87.235186
61.529664
55.272112
78.994463
50.336208
50.490377
53.069986
58.295112
65.168885
73.662658
83.666883
76.430497
85.595981
84.290182
82.802151
74.048125
53.106144
50.399489
50.533225
53.372810
57.581543
46.988303
87.014493
85.553291
72.205426
77.990582
76.813809
69.415986
63.065586
57.856868
53.499048
40.983692
40.897419
78.428005
85.712803
42.044334
46.011841
51.090275
57.624615
65.599506
74.808274
85.490795
83.201492
74.707507
67.170318
60.543326
54.814884
49.813537
45.644136
42.258482
87.741879
89.689114
41.316828
41.396036
41.652978
44.811107
49.507769
55.717542
63.432166
72.774276
83.824921
83.018556
72.184590
63.043751
55.408581
49.282518
44.567308
41.398834
47.762632
51.901849
56.236835
61.619660
68.235021
75.838520
84.306995
85.416569
76.206007
68.229144
61.391892
55.846526
51.432798
48.064460
47.842995
49.169882
54.637530
61.948667
71.285961
82.681460
83.413855
71.974755
62.557561
55.227359
49.771558
51.736673
52.479145
56.239583
63.048865
86.009571
65.804756
73.363077
84.278660
85.169891
88.514388
76.372353
69.308867
50.753312
53.840546
51.936254
52.147531
68.985607
76.658846
85.703796
83.749043
56.402360
51.286923
74.967148
67.491462
61.148013
60.781489
54.969199
75.095381
77.959558
84.877352
88.647719
88.647719
89.687090
88.701289
75.414870
67.767805
46.268087
50.419477
84.885311
76.411783
74.716490
51.296488
53.496968
66.697430
75.397148
76.586941
85.211423
89.363465
88.853569
70.504104
76.171316
55.033339
60.800975
85.747718
50.832005
47.717006
89.957885
88.750955
70.575892
79.998134
88.615146
55.074207
60.754492
59.192585
53.549542
75.194929
88.870424
48.644134
51.942314
66.645673
59.929222
89.267253
88.658485
76.323780
67.192887
79.889947
53.787851
59.626877
55.171523
61.159666
40.704248
43.604896
48.070148
54.210435
62.014193
71.728208
83.335258
82.672255
71.289863
61.722955
53.976172
47.880556
43.307516
40.471953