# vtk DataFile Version 3.0
Twin boundary planes
ASCII
DATASET POLYDATA

POINTS 4 float
0.0 0.0 9.780908e+03
1.956182e+04 0.0 9.780908e+03
1.956182e+04 1.956182e+04 9.780908e+03
0.0 1.956182e+04 9.780908e+03

POLYGONS 1 5
4 0 1 2 3

CELL_DATA 1
SCALARS TwinPlaneZ float
LOOKUP_TABLE default
9.780908e+03
