# vtk DataFile Version 3.0
High degree nodes
ASCII
DATASET POLYDATA
POINTS 5 float
6.827792e+03 1.522963e+04 4.785173e+03
8.260544e+03 1.666238e+04 4.785173e+03
8.950265e+03 1.735211e+04 4.785173e+03
8.512748e+03 1.683073e+04 1.935191e+04
8.651643e+03 1.705348e+04 4.785173e+03

POINT_DATA 5
SCALARS NodeDegree int 1
LOOKUP_TABLE default
7
8
9
9
7
