# vtk DataFile Version 3.0
Dislocation network (FCC crystal) exported from OpenDiS
ASCII
DATASET UNSTRUCTURED_GRID
POINTS 3824 FLOAT
0.00000000e+00 0.00000000e+00 0.00000000e+00
1.95620000e+04 0.00000000e+00 0.00000000e+00
0.00000000e+00 1.95620000e+04 0.00000000e+00
0.00000000e+00 0.00000000e+00 1.95620000e+04
1.95620000e+04 1.95620000e+04 0.00000000e+00
1.95620000e+04 0.00000000e+00 1.95620000e+04
0.00000000e+00 1.95620000e+04 1.95620000e+04
1.95620000e+04 1.95620000e+04 1.95620000e+04
2.20595102e+03 6.15585773e+03 1.25967847e+04
2.32814977e+03 6.09497810e+03 1.26581038e+04
2.20595102e+03 6.15585773e+03 1.25967847e+04
2.32812879e+03 6.21638918e+03 1.25351384e+04
2.32814977e+03 6.09497810e+03 1.26581038e+04
2.45021498e+03 6.03420120e+03 1.27193921e+04
2.45021498e+03 6.03420120e+03 1.27193921e+04
2.57230818e+03 5.97400042e+03 1.27812845e+04
2.57230818e+03 5.97400042e+03 1.27812845e+04
2.69449423e+03 5.91398069e+03 1.28434508e+04
2.69449423e+03 5.91398069e+03 1.28434508e+04
2.81662936e+03 5.97551184e+03 1.27828469e+04
2.81662936e+03 5.97551184e+03 1.27828469e+04
2.93878065e+03 6.03622169e+03 1.27214054e+04
2.93878065e+03 6.03622169e+03 1.27214054e+04
3.06089076e+03 6.09712991e+03 1.26602035e+04
3.06089076e+03 6.09712991e+03 1.26602035e+04
3.18303743e+03 6.15767795e+03 1.25986049e+04
3.18303743e+03 6.15767795e+03 1.25986049e+04
3.06086116e+03 6.21780060e+03 1.25365513e+04
3.06086116e+03 6.21780060e+03 1.25365513e+04
2.93877773e+03 6.27844482e+03 1.24751121e+04
2.93877773e+03 6.27844482e+03 1.24751121e+04
2.81666262e+03 6.33973457e+03 1.24142867e+04
2.81666262e+03 6.33973457e+03 1.24142867e+04
2.69449423e+03 6.40076640e+03 1.23531501e+04
2.69449423e+03 6.40076640e+03 1.23531501e+04
2.57232710e+03 6.33887720e+03 1.24134281e+04
2.57232710e+03 6.33887720e+03 1.24134281e+04
2.45022981e+03 6.27724741e+03 1.24738956e+04
2.45022981e+03 6.27724741e+03 1.24738956e+04
2.32812879e+03 6.21638918e+03 1.25351384e+04
1.68050128e+04 1.68215728e+04 1.31704541e+04
1.66896484e+04 1.67659575e+04 1.31107050e+04
1.68050128e+04 1.68215728e+04 1.31704541e+04
1.66896462e+04 1.68773822e+04 1.32300114e+04
1.66896484e+04 1.67659575e+04 1.31107050e+04
1.65741772e+04 1.67090353e+04 1.30521560e+04
1.65741772e+04 1.67090353e+04 1.30521560e+04
1.64588192e+04 1.66515714e+04 1.29942619e+04
1.64588192e+04 1.66515714e+04 1.29942619e+04
1.63435633e+04 1.65939470e+04 1.29366303e+04
1.63435633e+04 1.65939470e+04 1.29366303e+04
1.62281093e+04 1.65362210e+04 1.28789024e+04
1.62281093e+04 1.65362210e+04 1.28789024e+04
1.61127063e+04 1.64785750e+04 1.28211453e+04
1.61127063e+04 1.64785750e+04 1.28211453e+04
1.59973292e+04 1.64210103e+04 1.27633329e+04
1.59973292e+04 1.64210103e+04 1.27633329e+04
1.58820038e+04 1.63634383e+04 1.27055796e+04
1.58820038e+04 1.63634383e+04 1.27055796e+04
1.57666021e+04 1.63056713e+04 1.26479448e+04
1.57666021e+04 1.63056713e+04 1.26479448e+04
1.56512024e+04 1.62477533e+04 1.25904631e+04
1.56512024e+04 1.62477533e+04 1.25904631e+04
1.55358273e+04 1.61897527e+04 1.25330886e+04
1.55358273e+04 1.61897527e+04 1.25330886e+04
1.54204365e+04 1.61314590e+04 1.24759916e+04
1.54204365e+04 1.61314590e+04 1.24759916e+04
1.53050010e+04 1.61886293e+04 1.25342568e+04
1.53050010e+04 1.61886293e+04 1.25342568e+04
1.51896557e+04 1.62461190e+04 1.25921124e+04
1.51896557e+04 1.62461190e+04 1.25921124e+04
1.50743125e+04 1.63037000e+04 1.26498746e+04
1.50743125e+04 1.63037000e+04 1.26498746e+04
1.49588970e+04 1.63612910e+04 1.27076991e+04
1.49588970e+04 1.63612910e+04 1.27076991e+04
1.48435678e+04 1.64187677e+04 1.27655517e+04
1.48435678e+04 1.64187677e+04 1.27655517e+04
1.47281332e+04 1.64763270e+04 1.28234270e+04
1.47281332e+04 1.64763270e+04 1.28234270e+04
1.46127584e+04 1.65339410e+04 1.28811877e+04
1.46127584e+04 1.65339410e+04 1.28811877e+04
1.44973059e+04 1.65916612e+04 1.29389201e+04
1.44973059e+04 1.65916612e+04 1.29389201e+04
1.43820631e+04 1.66493246e+04 1.29964995e+04
1.43820631e+04 1.66493246e+04 1.29964995e+04
1.42666871e+04 1.67069227e+04 1.30542773e+04
1.42666871e+04 1.67069227e+04 1.30542773e+04
1.41512561e+04 1.67643567e+04 1.31122744e+04
1.41512561e+04 1.67643567e+04 1.31122744e+04
1.40358603e+04 1.68215221e+04 1.31705048e+04
1.40358603e+04 1.68215221e+04 1.31705048e+04
1.41513061e+04 1.68787817e+04 1.32286910e+04
1.41513061e+04 1.68787817e+04 1.32286910e+04
1.42667020e+04 1.69362951e+04 1.32865736e+04
1.42667020e+04 1.69362951e+04 1.32865736e+04
1.43819707e+04 1.69936863e+04 1.33444511e+04
1.43819707e+04 1.69936863e+04 1.33444511e+04
1.44972819e+04 1.70512137e+04 1.34022348e+04
1.44972819e+04 1.70512137e+04 1.34022348e+04
1.46128387e+04 1.71089512e+04 1.34600542e+04
1.46128387e+04 1.71089512e+04 1.34600542e+04
1.47281462e+04 1.71666391e+04 1.35176738e+04
1.47281462e+04 1.71666391e+04 1.35176738e+04
1.48434917e+04 1.72243840e+04 1.35752743e+04
1.48434917e+04 1.72243840e+04 1.35752743e+04
1.49589467e+04 1.72821058e+04 1.36330075e+04
1.49589467e+04 1.72821058e+04 1.36330075e+04
1.50743309e+04 1.73396590e+04 1.36908386e+04
1.50743309e+04 1.73396590e+04 1.36908386e+04
1.51896819e+04 1.73972365e+04 1.37486120e+04
1.51896819e+04 1.73972365e+04 1.37486120e+04
1.53049575e+04 1.74548490e+04 1.38062752e+04
1.53049575e+04 1.74548490e+04 1.38062752e+04
1.54204365e+04 1.75125558e+04 1.38640474e+04
1.54204365e+04 1.75125558e+04 1.38640474e+04
1.55359038e+04 1.74547433e+04 1.38063927e+04
1.55359038e+04 1.74547433e+04 1.38063927e+04
1.56511402e+04 1.73970599e+04 1.37488396e+04
1.56511402e+04 1.73970599e+04 1.37488396e+04
1.57666044e+04 1.73392958e+04 1.36911395e+04
1.57666044e+04 1.73392958e+04 1.36911395e+04
1.58819702e+04 1.72815491e+04 1.36335204e+04
1.58819702e+04 1.72815491e+04 1.36335204e+04
1.59972806e+04 1.72236651e+04 1.35760940e+04
1.59972806e+04 1.72236651e+04 1.35760940e+04
1.61127110e+04 1.71656553e+04 1.35186734e+04
1.61127110e+04 1.71656553e+04 1.35186734e+04
1.62281246e+04 1.71077017e+04 1.34612134e+04
1.62281246e+04 1.71077017e+04 1.34612134e+04
1.63434613e+04 1.70498739e+04 1.34037045e+04
1.63434613e+04 1.70498739e+04 1.34037045e+04
1.64588968e+04 1.69920946e+04 1.33460483e+04
1.64588968e+04 1.69920946e+04 1.33460483e+04
1.65742138e+04 1.69345864e+04 1.32882396e+04
1.65742138e+04 1.69345864e+04 1.32882396e+04
1.66896462e+04 1.68773822e+04 1.32300114e+04
9.78476717e+03 1.58658571e+04 3.67144766e+03
9.72621707e+03 1.57496477e+04 3.72910690e+03
9.78476717e+03 1.58658571e+04 3.67144766e+03
9.84329153e+03 1.57496382e+04 3.61375316e+03
9.72621707e+03 1.57496477e+04 3.72910690e+03
9.66794457e+03 1.56334587e+04 3.78702339e+03
9.66794457e+03 1.56334587e+04 3.78702339e+03
9.60983899e+03 1.55172909e+04 3.84508566e+03
9.60983899e+03 1.55172909e+04 3.84508566e+03
9.55179290e+03 1.54011424e+04 3.90318802e+03
9.55179290e+03 1.54011424e+04 3.90318802e+03
9.49377460e+03 1.52850507e+04 3.96126147e+03
9.49377460e+03 1.52850507e+04 3.96126147e+03
9.43560372e+03 1.51687141e+04 4.01942719e+03
9.43560372e+03 1.51687141e+04 4.01942719e+03
9.37754327e+03 1.50526716e+04 4.07740918e+03
9.37754327e+03 1.50526716e+04 4.07740918e+03
9.31936380e+03 1.49364177e+04 4.13548367e+03
9.31936380e+03 1.49364177e+04 4.13548367e+03
9.26131304e+03 1.48203035e+04 4.19354713e+03
9.26131304e+03 1.48203035e+04 4.19354713e+03
9.20323548e+03 1.47040872e+04 4.25168586e+03
9.20323548e+03 1.47040872e+04 4.25168586e+03
9.14515017e+03 1.45879594e+04 4.30972830e+03
9.14515017e+03 1.45879594e+04 4.30972830e+03
9.08678340e+03 1.44717355e+04 4.36758550e+03
9.08678340e+03 1.44717355e+04 4.36758550e+03
9.14460218e+03 1.43555001e+04 4.30916894e+03
9.14460218e+03 1.43555001e+04 4.30916894e+03
9.20255433e+03 1.42393241e+04 4.25094506e+03
9.20255433e+03 1.42393241e+04 4.25094506e+03
9.26051836e+03 1.41231971e+04 4.19278207e+03
9.26051836e+03 1.41231971e+04 4.19278207e+03
9.31848603e+03 1.40071434e+04 4.13469609e+03
9.31848603e+03 1.40071434e+04 4.13469609e+03
9.37667279e+03 1.38907992e+04 4.07653865e+03
9.37667279e+03 1.38907992e+04 4.07653865e+03
9.43478939e+03 1.37746346e+04 4.01849067e+03
9.43478939e+03 1.37746346e+04 4.01849067e+03
9.49288106e+03 1.36585283e+04 3.96047597e+03
9.49288106e+03 1.36585283e+04 3.96047597e+03
9.55104968e+03 1.35422557e+04 3.90237205e+03
9.55104968e+03 1.35422557e+04 3.90237205e+03
9.60907542e+03 1.34261923e+04 3.84433439e+03
9.60907542e+03 1.34261923e+04 3.84433439e+03
9.66712569e+03 1.33100410e+04 3.78623331e+03
9.66712569e+03 1.33100410e+04 3.78623331e+03
9.72526815e+03 1.31938328e+04 3.72816755e+03
9.72526815e+03 1.31938328e+04 3.72816755e+03
9.78354570e+03 1.30776139e+04 3.67022619e+03
9.78354570e+03 1.30776139e+04 3.67022619e+03
9.84181410e+03 1.31938894e+04 3.61221904e+03
9.84181410e+03 1.31938894e+04 3.61221904e+03
9.89981753e+03 1.33099344e+04 3.55417748e+03
9.89981753e+03 1.33099344e+04 3.55417748e+03
9.95798967e+03 1.34261845e+04 3.49609950e+03
9.95798967e+03 1.34261845e+04 3.49609950e+03
1.00161570e+04 1.35423422e+04 3.43810918e+03
1.00161570e+04 1.35423422e+04 3.43810918e+03
1.00743201e+04 1.36585172e+04 3.38009726e+03
1.00743201e+04 1.36585172e+04 3.38009726e+03
1.01324810e+04 1.37746973e+04 3.32207807e+03
1.01324810e+04 1.37746973e+04 3.32207807e+03
1.01905884e+04 1.38907676e+04 3.26411511e+03
1.01905884e+04 1.38907676e+04 3.26411511e+03
1.02487929e+04 1.40070138e+04 3.20607342e+03
1.02487929e+04 1.40070138e+04 3.20607342e+03
1.03070481e+04 1.41232641e+04 3.14807842e+03
1.03070481e+04 1.41232641e+04 3.14807842e+03
1.03652705e+04 1.42394027e+04 3.09016224e+03
1.03652705e+04 1.42394027e+04 3.09016224e+03
1.04234944e+04 1.43554314e+04 3.03235736e+03
1.04234944e+04 1.43554314e+04 3.03235736e+03
1.04820683e+04 1.44717355e+04 2.97462716e+03
1.04820683e+04 1.44717355e+04 2.97462716e+03
1.04243376e+04 1.45879961e+04 3.03315706e+03
1.04243376e+04 1.45879961e+04 3.03315706e+03
1.03664280e+04 1.47040696e+04 3.09132098e+03
1.03664280e+04 1.47040696e+04 3.09132098e+03
1.03083587e+04 1.48202565e+04 3.14943853e+03
1.03083587e+04 1.48202565e+04 3.14943853e+03
1.02502662e+04 1.49365068e+04 3.20759640e+03
1.02502662e+04 1.49365068e+04 3.20759640e+03
[...]
CELL_DATA 1909
SCALARS SlipSystemID int 1
LOOKUP_TABLE default
0
10
7
10
10
10
7
7
7
7
10
10
10
10
7
7
7
4
1
4
4
4
4
4
4
4
4
4
4
4
1
1
1
1
1
1
1
1
1
1
1
1
4
4
4
4
4
4
4
4
4
4
4
4
1
1
1
1
1
1
1
1
1
1
1
5
11
5
5
5
5
5
5
5
5
5
5
5
11
11
11
11
11
11
11
11
11
11
11
11
5
5
5
5
5
5
5
5
5
5
5
5
11
11
11
11
11
11
11
11
11
11
11
2
8
2
2
2
2
2
2
8
8
8
8
8
8
8
2
2
2
2
2
2
2
8
8
8
8
8
8
6
9
6
6
6
6
6
6
6
9
9
9
9
9
9
9
9
6
6
6
6
6
6
6
6
9
9
9
9
9
9
9
3
12
3
3
3
3
3
3
3
3
3
12
12
12
12
12
12
12
12
12
12
3
3
3
3
3
3
3
3
3
3
12
12
12
12
12
12
12
12
12
10
7
10
10
10
10
10
7
7
7
7
7
7
10
10
10
10
10
10
7
7
7
7
7
4
1
4
4
4
4
4
4
4
4
4
1
1
1
1
1
1
1
1
1
1
4
4
4
4
4
4
4
4
4
4
1
1
1
1
1
1
1
1
1
5
11
5
5
5
5
11
11
11
11
11
5
5
5
5
5
11
11
11
11
2
8
2
2
2
2
2
8
8
8
8
8
8
2
2
2
2
2
2
8
8
8
8
8
6
9
6
6
6
6
9
9
9
9
9
6
6
6
6
6
9
9
9
9
3
12
3
3
3
3
3
12
12
12
12
12
12
3
3
3
3
3
3
12
12
12
12
12
10
7
10
10
10
10
10
7
7
7
7
7
7
10
10
10
10
10
10
7
7
7
7
7
4
1
4
4
4
4
4
1
1
1
1
1
1
4
4
4
4
4
4
1
1
1
1
1
5
11
5
5
5
5
5
11
11
11
11
11
11
5
5
5
5
5
5
11
11
11
11
11
2
8
2
2
2
8
8
8
8
2
2
2
2
8
8
8
6
9
6
6
6
6
6
6
9
9
9
9
9
9
9
6
6
6
6
6
6
6
9
9
9
9
9
9
3
12
3
3
3
3
3
3
3
12
12
12
12
12
12
12
12
3
3
3
3
3
3
3
3
12
12
12
12
12
12
12
10
7
10
10
10
10
7
7
7
7
7
10
10
10
10
10
7
7
7
7
4
1
4
4
4
4
4
4
1
1
1
1
1
1
1
4
4
4
4
4
4
4
1
1
1
1
1
1
5
11
5
5
5
5
5
11
11
11
11
11
11
5
5
5
5
5
5
11
11
11
11
11
2
8
2
2
2
2
2
8
8
8
8
8
8
2
2
2
2
2
2
8
8
8
8
8
6
9
6
6
6
6
6
9
9
9
9
9
9
6
6
6
6
6
6
9
9
9
9
9
3
12
3
3
3
3
3
3
3
3
3
12
12
12
12
12
12
12
12
12
12
3
3
3
3
3
3
3
3
3
3
12
12
12
12
12
12
12
12
12
10
7
10
10
10
10
10
10
7
7
7
7
7
7
7
10
10
10
10
10
10
10
7
7
7
7
7
7
4
1
4
4
4
4
4
4
1
1
1
1
1
1
1
4
4
4
4
4
4
4
1
1
1
1
1
1
5
11
5
5
5
5
5
11
11
11
11
11
11
5
5
5
5
5
5
11
11
11
11
11
2
8
2
2
2
2
2
2
8
8
8
8
8
8
8
2
2
2
2
2
2
2
8
8
8
8
8
8
6
9
6
6
6
6
6
9
9
9
9
9
9
6
6
6
6
6
6
9
9
9
9
9
3
12
3
3
3
3
12
12
12
12
12
3
3
3
3
3
12
12
12
12
10
7
10
10
10
10
7
7
7
7
7
10
10
10
10
10
7
7
7
7
4
1
4
4
4
4
1
1
1
1
1
4
4
4
4
4
1
1
1
1
5
11
5
5
5
5
11
11
11
11
11
5
5
5
5
5
11
11
11
11
2
8
2
2
2
2
2
2
2
8
8
8
8
8
8
8
8
2
2
2
2
2
2
2
2
8
8
8
8
8
8
8
6
9
6
6
6
6
9
9
9
9
9
6
6
6
6
6
9
9
9
9
3
12
3
3
3
3
3
12
12
12
12
12
12
3
3
3
3
3
3
12
12
12
12
12
10
7
10
10
10
10
10
10
7
7
7
7
7
7
7
10
10
10
10
10
10
10
7
7
7
7
7
7
4
1
4
4
4
4
4
1
1
1
1
1
1
4
4
4
4
4
4
1
1
1
1
1
5
11
5
5
5
5
5
5
5
11
11
11
11
11
11
11
11
5
5
5
5
5
5
5
5
11
11
11
11
11
11
11
2
8
2
2
2
2
2
8
8
8
8
8
8
2
2
2
2
2
2
8
8
8
8
8
6
9
6
6
6
6
6
9
9
9
9
9
9
6
6
6
6
6
6
9
9
9
9
9
3
12
3
3
3
3
3
12
12
12
12
12
12
3
3
3
3
3
3
12
12
12
12
12
10
7
10
10
10
10
10
10
7
7
7
7
7
7
7
10
10
10
10
10
10
10
7
7
7
7
7
7
4
1
4
4
4
4
4
1
1
1
1
1
1
4
4
4
4
4
4
1
1
1
1
1
5
11
5
5
5
5
5
5
5
11
11
11
11
11
11
11
11
5
5
5
5
5
5
5
5
11
11
11
11
11
11
11
2
8
2
2
2
2
8
8
8
8
8
2
2
2
2
2
8
8
8
8
6
9
6
6
6
6
9
9
9
9
9
6
6
6
6
6
9
9
9
9
3
12
3
3
3
3
3
12
12
12
12
12
12
3
3
3
3
3
3
12
12
12
12
12
10
7
10
10
10
10
7
7
7
7
7
10
10
10
10
10
7
7
7
7
4
1
4
4
4
4
1
1
1
1
1
4
4
4
4
4
1
1
1
1
5
11
5
5
5
5
5
11
11
11
11
11
11
5
5
5
5
5
5
11
11
11
11
11
2
8
2
2
2
2
2
8
8
8
8
8
8
2
2
2
2
2
2
8
8
8
8
8
6
9
6
6
6
6
6
6
9
9
9
9
9
9
9
6
6
6
6
6
6
6
9
9
9
9
9
9
3
12
3
3
3
3
3
12
12
12
12
12
12
3
3
3
3
3
3
12
12
12
12
12
10
7
10
10
10
10
7
7
7
7
7
10
10
10
10
10
7
7
7
7
4
1
4
4
4
4
4
1
1
1
1
1
1
4
4
4
4
4
4
1
1
1
1
1
5
11
5
5
5
5
11
11
11
11
11
5
5
5
5
5
11
11
11
11
2
8
2
2
2
2
8
8
8
8
8
2
2
2
2
2
8
8
8
8
6
9
6
6
6
6
9
9
9
9
9
6
6
6
6
6
9
9
9
9
3
12
3
3
3
3
3
12
12
12
12
12
12
3
3
3
3
3
3
12
12
12
12
12
10
7
10
10
10
10
10
10
7
7
7
7
7
7
7
10
10
10
10
10
10
10
7
7
7
7
7
7
4
1
4
4
4
1
1
1
1
4
4
4
4
1
1
1
5
11
5
5
5
5
5
5
11
11
11
11
11
11
11
5
5
5
5
5
5
5
11
11
11
11
11
11
2
8
2
2
2
2
2
2
2
2
8
8
8
8
8
8
8
8
8
2
2
2
2
2
2
2
2
2
8
8
8
8
8
8
8
8
6
9
6
6
6
6
9
9
9
9
9
6
6
6
6
6
9
9
9
9
3
12
3
3
3
3
3
12
12
12
12
12
12
3
3
3
3
3
3
12
12
12
12
12
10
7
10
10
10
10
10
10
10
7
7
7
7
7
7
7
7
10
10
10
10
10
10
10
10
7
7
7
7
7
7
7
4
1
4
4
4
4
4
4
4
4
1
1
1
1
1
1
1
1
1
4
4
4
4
4
4
4
4
4
1
1
1
1
1
1
1
1
5
11
5
5
5
5
5
11
11
11
11
11
11
5
5
5
5
5
5
11
11
11
11
11
2
8
2
2
2
2
8
8
8
8
8
2
2
2
2
2
8
8
8
8
6
9
6
6
6
6
9
9
9
9
9
6
6
6
6
6
9
9
9
9
3
12
3
3
3
3
12
12
12
12
12
3
3
3
3
3
12
12
12
12
10
7
10
10
10
10
10
10
10
7
7
7
7
7
7
7
7
10
10
10
10
10
10
10
10
7
7
7
7
7
7
7
4
1
4
4
4
4
1
1
1
1
1
4
4
4
4
4
1
1
1
1
5
11
5
5
5
5
11
11
11
11
11
5
5
5
5
5
11
11
11
11
SCALARS DislocationType int 1
LOOKUP_TABLE default
0
3
3
3
3
3
3
3
3
3
3
3
3
3
3
3
3
3
3
3
3
3
3
3
3
3
3
3
3
3
3
3
3
3
3
3
3
3
3
3
3
3
3
3
3
3
3
3
3
3
3
3
3
3
3
3
3
3
3
3
3
3
3
3
3
3
3
3
3
3
3
3
3
3
3
3
3
3
3
3
3
3
3
3
3
3
3
3
3
3
3
3
3
3
3
3
3
3
3
3
3
3
3
3
3
3
3
3
3
3
3
3
3
3
3
3
3
3
3
3
3
3
3
3
3
3
3
3
3
3
3
3
3
3
3
3
3
3
3
3
3
3
3
3
3
3
3
3
3
3
3
3
3
3
3
3
3
3
3
3
3
3
3
3
3
3
3
3
3
3
3
3
3
3
3
3
3
3
3
3
3
3
3
3
3
3
3
3
3
3
3
3
3
3
3
3
3
3
3
3
3
3
3
3
3
3
3
3
3
3
3
3
3
3
3
3
3
3
3
3
3
3
3
3
3
3
3
3
3
3
3
3
3
3
3
3
3
3
3
3
3
3
3
3
3
3
3
3
3
3
3
3
3
3
3
3
3
3
3
3
3
3
3
3
3
3
3
3
3
3
3
3
3
3
3
3
3
3
3
3
3
3
3
3
3
3
3
3
3
3
3
3
3
3
3
3
3
3
3
3
3
3
3
3
3
3
3
3
3
3
3
3
3
3
3
3
3
3
3
3
3
3
3
3
3
3
3
3
3
3
3
3
3
3
3
3
3
3
3
3
3
3
3
3
3
3
3
3
3
3
3
3
3
3
3
3
3
3
3
3
3
3
3
3
3
3
3
3
3
3
3
3
3
3
3
3
3
3
3
3
3
3
3
3
3
3
3
3
3
3
3
3
3
3
3
3
3
3
3
3
3
3
3
3
3
3
3
3
3
3
3
3
3
3
3
3
3
3
3
3
3
3
3
3
3
3
3
3
3
3
3
3
3
3
3
3
3
3
3
3
3
3
3
3
3
3
3
3
3
3
3
3
3
3
3
3
3
3
3
3
3
3
3
3
3
3
3
3
3
3
3
3
3
3
3
3
3
3
3
3
3
3
3
3
3
3
3
3
3
3
3
3
3
3
3
3
3
3
3
3
3
3
3
3
3
3
3
3
3
3
3
3
3
3
3
3
3
3
3
3
3
3
3
3
3
3
3
3
3
3
3
3
3
3
3
3
3
3
3
3
3
3
3
3
3
3
3
3
3
3
3
3
3
3
3
3
3
3
3
3
3
3
3
3
3
3
3
3
3
3
3
3
3
3
3
3
3
3
3
3
3
3
3
3
3
3
3
3
3
3
3
3
3
3
3
3
3
3
3
3
3
3
3
3
3
3
3
3
3
3
3
3
3
3
3
3
3
3
3
3
3
3
3
3
3
3
3
3
3
3
3
3
3
3
3
3
3
3
3
3
3
3
3
3
3
3
3
3
3
3
3
3
3
3
3
3
3
3
3
3
3
3
3
3
3
3
3
3
3
3
3
3
3
3
3
3
3
3
3
3
3
3
3
3
3
3
3
3
3
3
3
3
3
3
3
3
3
3
3
3
3
3
3
3
3
3
3
3
3
3
3
3
3
3
3
3
3
3
3
3
3
3
3
3
3
3
3
3
3
3
3
3
3
3
3
3
3
3
3
3
3
3
3
3
3
3
3
3
3
3
3
3
3
3
3
3
3
3
3
3
3
3
3
3
3
3
3
3
3
3
3
3
3
3
3
3
3
3
3
3
3
3
3
3
3
3
3
3
3
3
3
3
3
3
3
3
3
3
3
3
3
3
3
3
3
3
3
3
3
3
3
3
3
3
3
3
3
3
3
3
3
3
3
3
3
3
3
3
3
3
3
3
3
3
3
3
3
3
3
3
3
3
3
3
3
3
3
3
3
3
3
3
3
3
3
3
3
3
3
3
3
3
3
3
3
3
3
3
3
3
3
3
3
3
3
3
3
3
3
3
3
3
3
3
3
3
3
3
3
3
3
3
3
3
3
3
3
3
3
3
3
3
3
3
3
3
3
3
3
3
3
3
3
3
3
3
3
3
3
3
3
3
3
3
3
3
3
3
3
3
3
3
3
3
3
3
3
3
3
3
3
3
3
3
3
3
3
3
3
3
3
3
3
3
3
3
3
3
3
3
3
3
3
3
3
3
3
3
3
3
3
3
3
3
3
3
3
3
3
3
3
3
3
3
3
3
3
3
3
3
3
3
3
3
3
3
3
3
3
3
3
3
3
3
3
3
3
3
3
3
3
3
3
3
3
3
3
3
3
3
3
3
3
3
3
3
3
3
3
3
3
3
3
3
3
3
3
3
3
3
3
3
3
3
3
3
3
3
3
3
3
3
3
3
3
3
3
3
3
3
3
3
3
3
3
3
3
3
3
3
3
3
3
3
3
3
3
3
3
3
3
3
3
3
3
3
3
3
3
3
3
3
3
3
3
3
3
3
3
3
3
3
3
3
3
3
3
3
3
3
3
3
3
3
3
3
3
3
3
3
3
3
3
3
3
3
3
3
3
3
3
3
3
3
3
3
3
3
3
3
3
3
3
3
3
3
3
3
3
3
3
3
3
3
3
3
3
3
3
3
3
3
3
3
3
3
3
3
3
3
3
3
3
3
3
3
3
3
3
3
3
3
3
3
3
3
3
3
3
3
3
3
3
3
3
3
3
3
3
3
3
3
3
3
3
3
3
3
3
3
3
3
3
3
3
3
3
3
3
3
3
3
3
3
3
3
3
3
3
3
3
3
3
3
3
3
3
3
3
3
3
3
3
3
3
3
3
3
3
3
3
3
3
3
3
3
3
3
3
3
3
3
3
3
3
3
3
3
3
3
3
3
3
3
3
3
3
3
3
3
3
3
3
3
3
3
3
3
3
3
3
3
3
3
3
3
3
3
3
3
3
3
3
3
3
3
3
3
3
3
3
3
3
3
3
3
3
3
3
3
3
3
3
3
3
3
3
3
3
3
3
3
3
3
3
3
3
3
3
3
3
3
3
3
3
3
3
3
3
3
3
3
3
3
3
3
3
3
3
3
3
3
3
3
3
3
3
3
3
3
3
3
3
3
3
3
3
3
3
3
3
3
3
3
3
3
3
3
3
3
3
3
3
3
3
3
3
3
3
3
3
3
3
3
3
3
3
3
3
3
3
3
3
3
3
3
3
3
3
3
3
3
3
3
3
3
3
3
3
3
3
3
3
3
3
3
3
3
3
3
3
3
3
3
3
3
3
3
3
3
3
3
3
3
3
3
3
3
3
3
3
3
3
3
3
3
3
3
3
3
3
3
3
3
3
3
3
3
3
3
3
3
3
3
3
3
3
3
3
3
3
3
3
3
3
3
3
3
3
3
3
3
3
3
3
3
3
3
3
3
3
3
3
3
3
3
3
3
3
3
3
3
3
3
3
3
3
3
3
3
3
3
3
3
3
3
3
3
3
3
3
3
3
3
3
3
3
3
3
3
3
3
3
3
3
3
3
3
3
3
3
3
3
3
3
3
3
3
3
3
3
3
3
3
3
3
3
3
3
3
3
3
3
3
3
3
3
3
3
3
3
3
3
3
3
3
3
3
3
3
3
3
3
3
3
3
3
3
3
3
3
3
3
3
3
3
3
3
3
3
3
3
3
3
3
3
3
3
3
3
3
3
3
3
3
3
3
3
3
3
3
3
3
3
3
3
3
3
3
3
3
3
3
3
3
3
3
3
3
3
3
3
3
3
3
3
3
3
3
3
3
3
3
3
3
3
3
3
3
3
3
3
3
3
3
3
3
3
3
3
3
3
3
3
3
3
3
3
3
3
3
3
3
3
3
3
3
3
3
3
3
3
3
3
3
3
3
3
3
3
3
3
3
3
3
3
3
3
3
3
3
3
3
3
3
3
3
3
3
3
3
3
3
3
3
3
3
3
3
3
3
3
3
3
3
3
3
3
3
3
3
3
3
3
3
3
3
3
3
3
3
3
3
3
3
3
3
3
3
3
3
3
3
3
3
3
3
3
3
3
3
3
3
3
3
3
3
3
3
3
3
3
3
3
3
3
3
3
3
3
3
3
3
3
3
3
3
3
3
3
3
3
3
3
3
3
3
3
3
3
3
3
3
3
3
3
3
3
3
3
3
3
3
3
3
3
3
3
3
3
3
3
3
3
3
3
3
3
3
3
3
3
3
3
3
3
3
3
3
3
3
3
3
3
3
3
3
3
3
3
3
3
3
3
3
3
3
3
3
3
3
3
3
3
3
3
3
3
3
3
3
3
3
3
3
3
3
3
3
SCALARS CharacterAngle float 1
LOOKUP_TABLE default
0.0
89.881028
89.698158
89.861405
89.541682
89.418867
89.748882
89.801878
89.920445
89.715477
89.477200
89.784588
89.874199
89.971640
89.563717
89.685107
89.895814
88.814812
88.925489
89.533956
89.876667
89.997923
89.999456
89.968161
89.928965
89.947997
89.962101
89.874929
89.820496
89.656926
89.686244
89.895070
89.948052
89.933060
89.892159
89.909454
89.957943
89.996497
89.975876
89.948474
89.838613
89.694748
89.734469
89.894154
89.860455
89.926461
89.976574
89.980399
89.958631
89.996786
89.920300
89.943836
89.985431
89.981274
89.954802
89.962577
89.981656
89.963451
89.868696
89.831165
89.858533
89.908527
89.964713
89.913787
89.706556
89.746415
89.763793
89.898642
89.987668
89.983978
89.984281
89.998531
89.977633
89.970130
89.996381
89.982592
89.987789
89.854965
89.829879
89.922627
89.943325
89.966275
89.991660
89.980458
89.978072
89.981593
89.996605
89.985529
89.978169
89.904308
89.925677
89.989132
89.973205
89.949588
89.956944
89.959651
89.958856
89.953665
89.925949
89.912774
89.880554
89.760037
89.772599
89.927532
89.986261
89.981379
89.956107
89.979893
89.982045
89.949913
89.920274
89.920849
89.930023
89.147205
89.250170
89.867860
89.773277
89.657297
89.697156
89.791281
89.484265
89.420492
89.717962
89.977882
89.896783
89.925800
89.973004
89.738577
89.835841
89.948694
89.919928
89.869704
89.869429
89.911424
89.723380
89.557376
89.723443
89.821202
89.898120
89.935361
89.840364
89.377697
89.417958
89.743309
89.930354
89.967318
89.984693
89.984741
89.950003
89.858740
89.819656
89.887063
89.912013
89.918610
89.928349
89.976429
89.843979
89.572636
89.560342
89.804936
89.822518
89.860057
89.881075
89.892164
89.865909
89.694200
89.683985
89.882680
89.950907
89.987262
89.906611
89.841243
89.780030
89.289082
89.500710
89.970635
89.681189
89.766929
89.856319
89.612953
89.681572
89.946274
89.854942
89.852087
89.396627
89.456840
89.733720
89.982761
89.883745
89.899354
89.589874
89.623235
89.624171
87.997055
88.273603
89.709719
89.815999
89.620957
89.648420
89.986726
89.715774
89.697605
89.874921
89.963234
89.848851
89.972692
89.770910
89.766410
89.922419
89.592046
89.563894
89.787730
89.980263
89.493091
89.612340
89.972157
89.723673
89.709815
89.836610
89.425260
89.188829
89.659193
89.973049
89.939562
89.768003
89.135464
89.365946
89.900874
89.856640
89.883472
89.800392
89.211777
89.003165
89.491353
89.713780
89.877058
89.971550
89.981443
89.949969
89.788453
89.928135
89.939937
89.814506
89.782532
89.986192
89.863852
89.920513
89.924972
89.867625
89.899037
89.882996
89.983586
89.760801
89.744690
89.830313
89.939557
89.865179
89.874513
89.888164
89.841625
89.776351
89.878067
89.848732
89.836391
89.931310
89.960119
89.863597
89.912346
89.774809
89.816745
89.930945
89.942633
89.827548
89.828073
89.906234
89.818979
89.900122
89.150591
89.279820
89.828372
89.662033
89.653485
89.706413
89.911218
89.842141
89.739387
89.718718
89.112884
89.229891
89.864624
89.932316
89.912421
89.911001
89.613936
89.689158
89.988044
89.795575
89.724574
89.604805
89.828530
89.776786
89.922288
89.975154
89.825726
89.821226
89.885426
89.847025
89.748400
89.805065
89.631332
89.579915
89.787132
89.924427
89.891771
89.876585
89.806727
89.865124
89.981945
89.992934
89.838283
89.706147
89.841799
89.878665
89.719296
89.928984
89.700847
89.428560
89.700218
89.884870
89.855665
89.691419
89.896588
89.803617
89.898266
89.795993
89.880456
89.866931
89.566912
89.698651
89.722130
89.975894
89.957842
89.842579
89.861687
89.919800
89.796130
89.734791
89.952303
89.807722
89.714281
89.810339
89.908196
89.959291
89.387578
89.263765
89.996918
89.573281
89.645478
89.715247
89.572767
89.579906
89.910807
89.868622
89.689395
89.909909
89.903211
89.873353
89.921174
89.927406
89.967971
89.823797
89.733781
89.811539
89.984521
89.936758
89.889299
89.978750
89.863016
89.879892
89.890336
89.978114
89.963778
89.934238
89.957673
89.971138
89.973220
89.979934
89.928675
89.806606
89.530650
89.564698
89.908301
89.894724
89.990223
89.953230
89.960154
89.938178
89.939062
89.987316
89.898482
89.899511
89.638607
89.688181
89.994766
89.953206
89.825654
89.766164
89.841277
89.990909
89.824709
89.851578
89.950225
89.960810
89.874443
89.973920
89.798262
89.660874
89.880754
89.925683
89.886633
89.955431
89.966636
89.884011
89.696945
89.870568
89.680003
89.882727
89.755798
89.827707
89.838604
89.786475
89.960862
89.829992
89.711977
89.777116
89.882121
89.774247
88.107372
87.938638
89.251329
89.409235
89.362512
89.695590
89.699001
89.304246
88.028182
87.840401
89.183501
89.927116
89.779666
89.427621
89.859763
89.284992
89.969045
89.852980
89.857078
89.730267
89.926526
89.928719
89.788284
89.609190
89.763536
89.958554
89.933540
89.837471
89.686990
89.824302
89.948642
89.795659
89.742956
89.826160
89.846298
89.756412
89.765896
89.599615
89.635035
89.958195
89.885276
89.918866
89.767393
89.721448
89.989005
89.784994
89.777945
89.907724
89.759684
89.693260
89.826307
89.944226
89.935572
89.968093
89.973090
89.856363
89.729067
89.818608
89.851984
89.840786
89.788692
89.560085
89.930623
89.671244
89.734991
89.884088
89.961830
89.849403
89.859589
89.845212
89.730970
89.821282
89.976449
89.799200
89.677487
89.961535
88.603485
88.619922
89.554236
89.919513
89.961981
89.816342
89.778682
89.859262
89.843452
89.583657
88.880021
88.911519
89.679318
89.970880
89.976582
89.967248
89.972213
89.946174
89.966755
89.595535
89.471135
89.581069
89.793028
89.997771
89.896441
89.859187
89.939005
89.806487
89.830147
89.808383
89.799184
89.889894
89.946785
89.586754
89.028739
89.199495
89.642094
89.818665
89.815808
89.880493
89.900286
89.802093
89.963042
89.968810
89.766063
89.715383
89.761620
89.758692
87.247134
87.563392
89.248725
89.954664
89.999998
89.832351
89.949273
89.596536
89.678387
89.992302
89.812329
89.770378
88.690593
88.745615
89.809585
89.912978
89.762068
89.605919
89.347386
89.505079
89.797591
89.728744
89.666078
89.805742
89.742525
89.433733
89.959541
89.705265
89.596548
89.851740
89.497545
89.380115
89.609767
89.571222
89.716081
89.759975
88.932830
88.684559
89.806875
89.512907
89.378266
89.462495
89.162719
89.190242
89.808965
89.842942
89.845253
89.842756
89.877044
89.696387
89.928123
89.984344
89.765921
89.848392
89.958221
89.904268
89.784468
89.766023
89.973374
89.870576
89.873925
89.724073
89.917202
89.761564
89.815322
89.946348
89.978529
89.988074
89.942751
89.830488
89.783992
89.892625
89.301614
89.330201
89.524693
89.841120
89.956583
89.806849
89.736604
89.835689
89.979821
89.904310
89.587634
89.543874
89.748857
89.804647
89.997032
89.872334
89.921752
89.997569
89.890143
89.751502
89.937651
89.930227
89.843759
89.805468
89.991616
89.813606
89.864313
89.957810
89.941149
89.869172
89.965621
89.779769
89.791341
89.936298
89.946230
89.846454
89.786809
89.971898
89.820284
89.697022
88.889785
89.194768
89.531312
89.830088
89.506042
89.470827
89.526800
89.210673
89.271400
89.869817
89.810011
89.728544
89.928648
89.695955
89.512178
89.788197
89.825861
89.619783
89.558413
89.788567
89.885431
89.479090
89.593097
89.826034
89.716127
89.553412
89.637300
89.700783
89.850820
89.882446
89.677453
89.791329
89.833627
89.555918
89.508621
89.389973
89.608465
89.872694
89.737893
89.927474
89.740531
89.654757
89.816091
89.830570
89.571978
89.532230
89.805021
89.906230
89.644940
89.405175
89.641229
89.961199
89.886888
89.671066
89.444637
89.546084
88.797118
89.005302
89.428203
89.977007
89.851082
89.961593
89.749888
89.656955
89.758679
89.677690
89.887862
89.378856
88.477444
88.669345
89.675066
89.846331
89.717085
89.781133
89.846175
89.908926
89.837222
89.716909
89.873496
89.777819
89.866564
89.660521
89.779096
89.549152
89.729813
89.950948
89.937610
89.829121
89.523251
89.758764
89.989318
89.771889
89.610799
89.875126
89.880470
89.853975
89.698135
89.999352
89.733730
89.826110
89.928066
89.554069
89.561682
89.742758
89.656574
89.628012
89.952519
89.694793
89.976871
89.951380
89.956092
89.942315
89.954990
89.988573
89.847242
89.767457
89.857473
89.955386
89.963257
89.923282
89.863017
89.906656
89.960602
89.938023
89.915865
89.858641
89.629039
89.620421
89.857631
89.965555
89.979708
89.912319
89.873048
89.926551
89.740911
89.640799
89.914411
89.803354
89.817436
89.779987
89.550308
89.682136
89.680723
89.655403
89.896182
89.993770
89.739266
89.799920
89.825764
89.777708
89.956470
89.810919
89.208282
89.362061
89.860399
89.857134
89.837020
89.965625
89.955073
89.895001
89.914217
89.904370
89.485294
89.635673
89.923618
89.870417
89.818501
89.844200
89.995119
89.969536
89.982204
89.900333
89.778230
89.951958
89.681311
89.563525
89.562954
89.613257
89.609391
89.950458
89.750281
89.899202
89.913085
89.961009
89.734736
89.724434
89.840985
89.694686
89.504011
89.798588
89.829161
89.913953
89.625390
89.776340
89.607984
89.985060
89.731204
89.767259
89.832113
89.756301
89.978481
89.563111
89.441797
89.612738
89.648984
89.636123
89.817054
89.879643
89.830836
89.697911
89.561852
89.642807
89.741410
89.925106
89.750553
89.981069
89.804561
89.861964
89.934919
89.982258
89.941507
89.843022
89.905436
89.997032
89.925574
89.818567
89.980918
89.788301
89.750597
89.939332
89.968850
89.812681
89.804028
89.930713
89.990793
89.892476
89.833121
89.948012
89.986574
89.962709
89.886343
89.781574
89.805227
89.941647
89.986751
89.866002
89.992030
89.779987
89.957628
89.689600
89.597116
89.693646
89.655602
89.919516
89.999018
89.923566
89.892335
89.868228
89.658660
89.562428
89.733085
89.889022
89.981708
89.809717
88.985738
89.209499
89.786122
89.652752
89.643616
89.796152
89.779575
89.830882
89.878130
89.637375
89.648851
89.632659
88.393899
88.652646
89.784085
89.910867
89.775329
89.923645
89.653836
89.474222
89.488849
89.488346
89.709430
89.815981
89.794154
89.856443
89.886445
89.752948
89.903283
89.807389
89.770985
89.914795
89.885114
89.746219
89.783266
89.914207
89.732321
89.841248
89.884059
89.947764
89.672772
89.826028
89.962969
89.808336
89.734786
89.802569
89.928706
89.781003
89.832534
89.968459
89.836852
89.705988
89.599052
89.763764
89.901356
89.677334
89.849477
89.932739
89.805308
89.692202
89.877853
89.929301
89.745326
89.928203
89.669253
89.848541
89.848833
89.966100
89.760153
89.845946
89.857962
89.704814
89.699610
89.696933
89.999787
89.880029
89.937328
89.802040
89.739037
89.953467
89.839381
89.679907
89.711885
89.883789
89.937281
89.992285
89.834382
89.651335
89.600915
89.780330
89.967885
89.765008
89.823946
89.662508
89.914443
89.673183
89.660340
89.940905
89.818156
89.766945
89.986799
89.732674
89.621009
89.709388
89.972612
89.713069
89.674577
89.850079
89.711283
89.880673
89.985469
89.882067
89.977233
89.692312
89.597578
89.911628
89.883950
89.893254
89.778076
89.900537
89.828571
89.925673
89.724505
89.906940
89.897420
89.735439
89.567594
89.779668
89.995212
89.949279
89.823397
89.691687
88.492672
88.540741
89.415823
89.937347
89.909474
89.816362
89.696023
89.665404
89.876541
89.880492
89.798501
89.341221
88.542984
88.648048
89.533435
89.997863
89.888737
89.814672
89.665910
89.714000
89.923649
89.971649
89.892094
89.448710
89.680713
89.570433
89.564553
89.597141
89.881899
89.904590
89.939820
89.744674
89.781941
89.972666
89.662011
89.524219
89.313726
89.188189
89.402503
89.788271
89.809510
89.611908
89.693053
89.915568
89.726938
89.869440
89.772765
89.499014
89.611367
89.756634
89.713801
89.855004
89.895888
89.960370
89.989604
89.997745
89.917418
89.958077
89.992814
89.955837
89.898455
89.753363
89.655264
89.771432
89.833307
89.848645
89.819750
89.901959
89.987166
89.997677
89.891622
89.914527
89.964403
89.869420
89.897701
89.874557
89.817991
89.552825
89.829085
89.662969
89.624193
89.880167
89.869814
89.832271
89.740433
89.556093
89.582860
89.794785
89.785785
89.559709
89.584213
89.991645
89.714689
89.577771
89.713389
89.917963
89.727923
89.782519
89.957446
89.576311
89.750992
89.685003