# vtk DataFile Version 3.0
Dislocation network (FCC crystal) exported from OpenDiS
ASCII
DATASET UNSTRUCTURED_GRID
POINTS 4508 FLOAT
0.00000000e+00 0.00000000e+00 0.00000000e+00
1.95620000e+04 0.00000000e+00 0.00000000e+00
0.00000000e+00 1.95620000e+04 0.00000000e+00
0.00000000e+00 0.00000000e+00 1.95620000e+04
1.95620000e+04 1.95620000e+04 0.00000000e+00
1.95620000e+04 0.00000000e+00 1.95620000e+04
0.00000000e+00 1.95620000e+04 1.95620000e+04
1.95620000e+04 1.95620000e+04 1.95620000e+04
2.20595102e+03 6.25283958e+03 1.26937665e+04
2.31364001e+03 6.13256471e+03 1.26811806e+04
2.20595102e+03 6.25283958e+03 1.26937665e+04
2.31519373e+03 6.37491867e+03 1.27066029e+04
1.93761882e+03 1.16403717e+04 1.61362012e+03
1.89700457e+03 1.15787983e+04 1.51143241e+03
1.93761882e+03 1.16403717e+04 1.61362012e+03
1.99480776e+03 1.17227326e+04 1.75316996e+03
2.50556959e+03 5.95583859e+03 1.26963841e+04
2.40754433e+03 6.03974208e+03 1.26822623e+04
2.50556959e+03 5.95583859e+03 1.26963841e+04
2.60329148e+03 5.88564551e+03 1.27239129e+04
1.73547473e+03 1.12539252e+04 1.63669630e+03
1.67936382e+03 1.11740041e+04 1.77272824e+03
1.73547473e+03 1.12539252e+04 1.63669630e+03
1.78076893e+03 1.13217711e+04 1.52355612e+03
2.69449423e+03 5.83331399e+03 1.27627841e+04
2.60329148e+03 5.88564551e+03 1.27239129e+04
2.69449423e+03 5.83331399e+03 1.27627841e+04
2.81213270e+03 5.90451553e+03 1.27163472e+04
1.74218266e+03 1.12577982e+04 3.38269385e+03
1.79792418e+03 1.13440607e+04 3.52469789e+03
1.74218266e+03 1.12577982e+04 3.38269385e+03
1.68505881e+03 1.11765335e+04 3.24430530e+03
2.81213270e+03 5.90451553e+03 1.27163472e+04
2.93381541e+03 5.99921990e+03 1.26893689e+04
5.22935529e+03 7.74671305e+03 1.49760406e+04
5.26643161e+03 7.78713754e+03 1.48985398e+04
5.22935529e+03 7.74671305e+03 1.49760406e+04
5.16855679e+03 7.67855047e+03 1.51050017e+04
3.18303743e+03 6.25544531e+03 1.26963723e+04
3.11435166e+03 6.33347382e+03 1.27057150e+04
3.18303743e+03 6.25544531e+03 1.26963723e+04
3.04957339e+03 6.10824405e+03 1.26826350e+04
4.18565935e+03 1.40618929e+04 1.64967503e+04
4.29039077e+03 1.40739117e+04 1.63800001e+04
4.18565935e+03 1.40618929e+04 1.64967503e+04
4.09015955e+03 1.40629107e+04 1.65912323e+04
2.92556898e+03 6.51800123e+03 1.27014597e+04
3.03524415e+03 6.41674424e+03 1.27098779e+04
2.92556898e+03 6.51800123e+03 1.27014597e+04
2.80707505e+03 6.60858459e+03 1.26735492e+04
1.18808356e+04 7.14284359e+03 1.54610881e+04
1.17826391e+04 7.22669818e+03 1.54467462e+04
1.18808356e+04 7.14284359e+03 1.54610881e+04
1.19725542e+04 7.05255003e+03 1.54625132e+04
2.69449423e+03 6.67512084e+03 1.26275046e+04
2.60186165e+03 6.62079513e+03 1.26658114e+04
2.69449423e+03 6.67512084e+03 1.26275046e+04
2.80707505e+03 6.60858459e+03 1.26735492e+04
2.60186165e+03 6.62079513e+03 1.26658114e+04
2.50548101e+03 6.55079008e+03 1.26921870e+04
2.50548101e+03 6.55079008e+03 1.26921870e+04
2.40872520e+03 6.46753977e+03 1.27056925e+04
5.20213670e+03 7.72430044e+03 1.47714078e+04
5.15980558e+03 7.68001355e+03 1.46847898e+04
5.20213670e+03 7.72430044e+03 1.47714078e+04
5.24206894e+03 7.76413492e+03 1.48511745e+04
1.68050128e+04 1.72797691e+04 1.27122578e+04
1.68336120e+04 1.71426411e+04 1.28207866e+04
1.68050128e+04 1.72797691e+04 1.27122578e+04
1.68225089e+04 1.74198220e+04 1.25897010e+04
1.24630420e+04 1.08777116e+04 7.72420980e+03
1.23656972e+04 1.08658649e+04 7.83340130e+03
1.24630420e+04 1.08777116e+04 7.72420980e+03
1.25790812e+04 1.08748730e+04 7.61100909e+03
5.76243708e+03 4.40196126e+03 1.22213077e+04
5.77832111e+03 4.33579408e+03 1.21392565e+04
5.76243708e+03 4.40196126e+03 1.22213077e+04
5.75235542e+03 4.47744618e+03 1.23068743e+04
9.30992063e+03 1.05333522e+04 1.01957337e+04
9.31211625e+03 1.05422176e+04 1.02067947e+04
9.30992063e+03 1.05333522e+04 1.01957337e+04
9.27617251e+03 1.04647788e+04 1.00934121e+04
1.68225089e+04 1.74198220e+04 1.25897010e+04
1.68259877e+04 1.75569347e+04 1.24560671e+04
1.68259877e+04 1.75569347e+04 1.24560671e+04
1.68188872e+04 1.76867978e+04 1.23191034e+04
1.68188872e+04 1.76867978e+04 1.23191034e+04
1.68054430e+04 1.77921341e+04 1.22003230e+04
1.67838900e+04 1.78999765e+04 1.20709276e+04
1.68054430e+04 1.77921341e+04 1.22003230e+04
1.67838900e+04 1.78999765e+04 1.20709276e+04
1.67674867e+04 1.79629079e+04 1.19915928e+04
1.67484735e+04 1.80246681e+04 1.19108195e+04
1.67674867e+04 1.79629079e+04 1.19915928e+04
1.67484735e+04 1.80246681e+04 1.19108195e+04
1.67049140e+04 1.81375544e+04 1.17543737e+04
1.66261923e+04 1.82872620e+04 1.15259444e+04
1.66689384e+04 1.82124455e+04 1.16435070e+04
1.66261923e+04 1.82872620e+04 1.15259444e+04
1.65600880e+04 1.83813759e+04 1.13657262e+04
1.64098198e+04 1.85340499e+04 1.10627840e+04
1.64877299e+04 1.84632550e+04 1.12114890e+04
1.64098198e+04 1.85340499e+04 1.10627840e+04
1.63192263e+04 1.85992185e+04 1.09070219e+04
1.57684179e+04 1.87462751e+04 1.02091568e+04
1.58549941e+04 1.87451584e+04 1.02968497e+04
1.57684179e+04 1.87462751e+04 1.02091568e+04
1.56414494e+04 1.87345062e+04 1.00939573e+04
1.54204365e+04 1.86773068e+04 9.93014375e+03
1.55419643e+04 1.87139448e+04 1.00150335e+04
1.54204365e+04 1.86773068e+04 9.93014375e+03
1.52946928e+04 1.87437178e+04 9.98947657e+03
1.44297811e+04 1.86329497e+04 1.09651564e+04
1.45160385e+04 1.86932999e+04 1.08185487e+04
1.44297811e+04 1.86329497e+04 1.09651564e+04
1.43867206e+04 1.85943070e+04 1.10468596e+04
1.42629599e+04 1.84632561e+04 1.13016712e+04
1.43010851e+04 1.85097493e+04 1.12170527e+04
1.42629599e+04 1.84632561e+04 1.13016712e+04
1.42245884e+04 1.84101562e+04 1.13931425e+04
1.41072307e+04 1.81905541e+04 1.17301024e+04
1.41452557e+04 1.82739783e+04 1.16086531e+04
1.41072307e+04 1.81905541e+04 1.17301024e+04
1.40656133e+04 1.80763495e+04 1.18859243e+04
1.40656133e+04 1.80763495e+04 1.18859243e+04
1.40340523e+04 1.79604437e+04 1.20333912e+04
1.40115467e+04 1.78435599e+04 1.21727805e+04
1.40340523e+04 1.79604437e+04 1.20333912e+04
1.40115467e+04 1.78435599e+04 1.21727805e+04
1.39966087e+04 1.77142506e+04 1.23170279e+04
1.39966087e+04 1.77142506e+04 1.23170279e+04
1.39923050e+04 1.76331645e+04 1.24024177e+04
1.39915770e+04 1.75523559e+04 1.24839542e+04
1.39923050e+04 1.76331645e+04 1.24024177e+04
1.39915770e+04 1.75523559e+04 1.24839542e+04
1.39982036e+04 1.74192368e+04 1.26104467e+04
1.39982036e+04 1.74192368e+04 1.26104467e+04
1.40136383e+04 1.72943749e+04 1.27198740e+04
1.40136383e+04 1.72943749e+04 1.27198740e+04
1.40358603e+04 1.71899529e+04 1.28020740e+04
1.70269496e+04 7.85053921e+03 7.55512645e+03
1.71092089e+04 7.84034770e+03 7.48305873e+03
1.70269496e+04 7.85053921e+03 7.55512645e+03
1.69204332e+04 7.87595894e+03 7.63622314e+03
1.16445114e+04 1.30235050e+04 9.64177791e+03
1.15634850e+04 1.30925768e+04 9.62982332e+03
1.16445114e+04 1.30235050e+04 9.64177791e+03
1.17289466e+04 1.29446314e+04 9.64733958e+03
1.40358603e+04 1.71899529e+04 1.28020740e+04
1.40117344e+04 1.70662953e+04 1.29016058e+04
1.39954385e+04 1.68373809e+04 1.31142242e+04
1.40010545e+04 1.69686254e+04 1.29885957e+04
1.39954385e+04 1.68373809e+04 1.31142242e+04
1.39992865e+04 1.67125405e+04 1.32429127e+04
1.39992865e+04 1.67125405e+04 1.32429127e+04
1.40117920e+04 1.65911676e+04 1.33767910e+04
1.40117920e+04 1.65911676e+04 1.33767910e+04
1.40332246e+04 1.64710634e+04 1.35183278e+04
1.40332246e+04 1.64710634e+04 1.35183278e+04
1.40641090e+04 1.63525217e+04 1.36677540e+04
1.40641090e+04 1.63525217e+04 1.36677540e+04
1.40857760e+04 1.62866841e+04 1.37552585e+04
1.41107190e+04 1.62214090e+04 1.38454766e+04
1.40857760e+04 1.62866841e+04 1.37552585e+04
1.41107190e+04 1.62214090e+04 1.38454766e+04
1.41614508e+04 1.61125915e+04 1.40050259e+04
1.41614508e+04 1.61125915e+04 1.40050259e+04
1.42094006e+04 1.60291481e+04 1.41364192e+04
1.42635885e+04 1.59503043e+04 1.42694508e+04
1.42094006e+04 1.60291481e+04 1.41364192e+04
1.42635885e+04 1.59503043e+04 1.42694508e+04
1.43062338e+04 1.58971262e+04 1.43652742e+04
1.43503517e+04 1.58486733e+04 1.44578450e+04
1.43062338e+04 1.58971262e+04 1.43652742e+04
1.43503517e+04 1.58486733e+04 1.44578450e+04
1.43979381e+04 1.58026934e+04 1.45514113e+04
1.46050468e+04 1.56596497e+04 1.49015638e+04
1.45249134e+04 1.57051509e+04 1.47759291e+04
1.46050468e+04 1.56596497e+04 1.49015638e+04
1.46990616e+04 1.56191814e+04 1.50360469e+04
1.48098185e+04 1.55869068e+04 1.51790784e+04
1.46990616e+04 1.56191814e+04 1.50360469e+04
1.48098185e+04 1.55869068e+04 1.51790784e+04
1.49282311e+04 1.55688943e+04 1.53155034e+04
1.54204365e+04 1.56625974e+04 1.57140058e+04
1.53196294e+04 1.56209870e+04 1.56548091e+04
1.54204365e+04 1.56625974e+04 1.57140058e+04
1.55439267e+04 1.56099680e+04 1.56431451e+04
1.60537391e+04 1.55843268e+04 1.51589738e+04
1.59537954e+04 1.55657183e+04 1.52775260e+04
1.60537391e+04 1.55843268e+04 1.51589738e+04
1.61674911e+04 1.56210735e+04 1.50084752e+04
1.62611562e+04 1.56652359e+04 1.48706477e+04
1.61674911e+04 1.56210735e+04 1.50084752e+04
1.62611562e+04 1.56652359e+04 1.48706477e+04
1.63377196e+04 1.57120312e+04 1.47472889e+04
1.65039906e+04 1.58556667e+04 1.44373825e+04
1.64588160e+04 1.58102047e+04 1.45280191e+04
1.65039906e+04 1.58556667e+04 1.44373825e+04
1.65464164e+04 1.59038961e+04 1.43467272e+04
1.65872404e+04 1.59562835e+04 1.42535159e+04
1.65464164e+04 1.59038961e+04 1.43467272e+04
1.65872404e+04 1.59562835e+04 1.42535159e+04
1.66407505e+04 1.60360681e+04 1.41202212e+04
1.66874435e+04 1.61190696e+04 1.39905266e+04
1.66407505e+04 1.60360681e+04 1.41202212e+04
1.66874435e+04 1.61190696e+04 1.39905266e+04
1.67125682e+04 1.61738704e+04 1.39106011e+04
1.67376929e+04 1.62286713e+04 1.38306755e+04
1.67125682e+04 1.61738704e+04 1.39106011e+04
1.67376929e+04 1.62286713e+04 1.38306755e+04
1.67618691e+04 1.62926284e+04 1.37425422e+04
1.67831159e+04 1.63573882e+04 1.36565356e+04
1.67618691e+04 1.62926284e+04 1.37425422e+04
1.67831159e+04 1.63573882e+04 1.36565356e+04
1.68143483e+04 1.64764783e+04 1.35062131e+04
1.68143483e+04 1.64764783e+04 1.35062131e+04
1.68363228e+04 1.65964126e+04 1.33643043e+04
1.68363228e+04 1.65964126e+04 1.33643043e+04
[...]
CELL_DATA 2251
SCALARS SlipSystemID int 1
LOOKUP_TABLE default
0
10
7
12
12
10
10
3
3
10
7
12
12
7
3
3
10
7
1
1
10
10
10
10
7
10
7
7
12
12
1
4
1
1
8
8
12
12
4
4
4
4
4
4
4
4
4
4
4
4
4
4
1
1
1
1
1
1
1
1
1
1
1
1
1
1
1
1
1
11
11
4
4
4
4
4
4
4
4
4
4
4
4
4
4
4
4
4
4
4
1
1
1
1
1
1
1
1
1
1
1
1
1
1
1
1
1
1
1
5
11
1
1
5
5
5
5
5
5
5
5
5
5
5
5
5
5
5
5
11
11
11
11
11
11
11
11
11
11
11
11
11
11
11
11
11
1
11
5
12
5
5
5
5
5
5
5
5
5
5
5
5
5
5
5
5
5
11
11
11
11
11
11
11
11
11
11
11
11
11
11
11
11
11
11
4
2
8
2
2
2
2
2
2
2
8
8
8
8
8
8
8
8
2
2
2
2
2
2
2
8
8
8
8
8
8
8
8
9
6
4
4
6
6
6
6
6
6
6
5
5
9
6
6
6
9
9
9
9
9
3
3
6
9
2
2
4
4
6
6
6
6
6
10
10
9
6
9
9
9
9
9
9
9
9
9
4
4
3
12
11
11
7
7
3
3
6
6
3
3
3
3
3
1
1
12
12
12
12
12
12
12
12
12
12
8
8
12
3
10
10
3
3
9
9
1
1
3
3
3
3
3
3
1
12
12
12
12
12
12
3
3
12
1
12
12
7
10
10
10
10
10
10
10
7
7
7
7
7
7
10
10
10
10
10
10
10
7
7
7
7
7
7
4
1
11
4
4
4
4
4
4
4
4
4
4
4
1
1
1
1
1
1
1
1
1
1
1
1
1
1
4
9
9
4
4
4
4
4
4
4
4
4
4
4
1
1
1
1
1
1
1
1
1
1
6
6
5
11
5
5
5
5
11
11
11
11
11
5
5
5
5
8
8
5
11
7
7
11
11
11
2
8
2
2
2
2
2
2
8
8
8
8
8
8
8
2
2
2
2
2
2
8
8
8
8
8
6
9
12
12
12
12
10
10
6
9
4
4
8
8
9
6
4
4
11
11
6
6
5
5
9
6
12
12
3
1
1
3
12
4
4
6
6
12
12
9
9
2
2
3
12
8
1
8
8
11
11
12
3
6
6
2
2
4
4
8
8
8
8
3
12
5
6
6
4
4
10
7
10
10
10
10
10
10
7
7
7
7
7
7
7
10
10
10
10
10
7
7
7
7
7
7
1
4
8
8
4
4
4
4
1
1
1
1
11
4
1
4
4
4
4
4
1
1
1
1
1
1
1
11
5
6
5
5
5
5
5
5
11
11
11
11
11
11
11
5
5
11
5
5
5
5
5
5
11
11
11
11
11
11
8
5
5
2
8
8
2
2
2
11
11
9
9
2
11
2
2
9
9
8
2
8
8
12
9
1
1
6
6
6
6
6
9
9
6
6
9
9
9
9
3
3
6
9
5
5
12
6
6
6
6
6
9
9
8
8
9
9
12
9
9
3
12
7
7
3
3
3
3
3
3
12
12
3
11
11
12
12
12
12
12
3
12
3
3
9
9
3
3
3
3
3
3
12
12
12
12
12
3
3
1
10
7
10
10
10
10
10
1
7
2
2
7
7
7
10
10
10
10
10
8
7
8
7
7
7
1
4
6
5
5
4
4
4
4
4
1
1
1
1
2
11
11
4
4
4
4
4
4
4
4
1
1
1
1
1
1
1
5
11
5
5
5
5
5
5
11
11
11
11
11
11
11
5
5
5
5
5
5
11
11
11
11
11
8
2
5
5
9
9
2
2
2
2
2
8
8
8
8
8
12
2
8
2
2
2
2
2
2
8
8
8
8
8
9
2
2
5
5
9
1
1
11
11
9
9
5
5
11
6
11
3
3
9
6
12
11
11
12
12
9
9
8
8
12
3
4
3
3
1
1
3
3
3
3
3
3
12
9
9
12
12
12
12
12
4
4
12
12
3
12
7
7
10
10
3
3
3
3
3
3
12
12
12
12
12
12
12
12
5
5
7
10
8
10
10
10
10
10
10
7
7
7
7
7
7
7
7
11
11
10
10
10
10
10
10
10
7
7
7
7
7
7
7
4
4
4
4
4
4
4
4
1
1
1
1
1
1
1
2
2
4
1
4
4
4
4
4
4
4
1
1
1
1
1
1
5
11
5
5
5
5
5
12
11
11
11
11
11
11
11
5
5
5
5
5
12
12
11
10
10
11
11
11
11
8
2
2
2
2
2
2
8
8
8
8
8
8
8
8
2
1
2
2
2
2
2
2
2
8
8
8
8
8
8
8
5
5
6
9
11
9
9
6
6
9
9
9
9
9
6
6
6
9
7
7
6
6
9
9
1
9
6
9
9
3
3
12
3
1
1
9
3
3
3
12
9
9
3
3
3
1
1
3
12
11
11
4
5
5
5
3
2
2
10
7
10
10
10
1
1
7
7
7
7
10
10
10
10
10
7
8
7
7
7
4
1
4
4
4
4
1
12
4
4
7
7
1
4
4
4
1
1
1
5
11
5
5
5
10
10
11
7
11
5
5
5
5
11
11
11
11
2
8
2
2
2
2
2
2
2
8
8
8
8
8
8
8
8
2
12
12
2
2
2
2
2
2
2
8
8
8
8
8
8
8
9
6
2
2
3
12
9
3
3
4
4
6
9
1
1
3
3
3
9
6
3
3
12
11
11
12
3
3
3
3
3
12
12
12
12
12
2
3
12
12
8
8
3
3
3
5
5
12
4
12
12
3
3
2
2
10
7
10
10
10
10
10
10
10
7
7
7
7
7
7
7
10
11
10
10
10
10
10
10
7
7
7
7
7
7
11
11
4
1
4
4
4
4
4
4
1
1
1
1
1
1
1
4
4
4
4
4
4
4
1
1
1
1
1
1
5
3
5
5
5
5
5
5
11
11
11
11
11
11
12
12
5
11
5
5
5
5
5
5
5
5
11
11
11
11
11
11
11
2
8
2
2
2
2
2
8
8
8
8
8
8
2
2
2
2
2
2
2
8
8
8
8
8
6
9
12
12
3
3
1
10
10
6
7
7
12
6
6
11
6
2
2
6
6
10
10
9
6
7
12
12
9
1
3
12
3
3
3
9
9
12
4
12
12
3
12
12
3
12
1
8
8
3
3
3
12
1
12
12
10
7
10
10
10
10
10
10
10
7
7
7
7
7
7
7
7
10
5
5
10
10
10
10
10
10
7
7
7
7
7
7
11
4
1
4
4
4
4
4
4
12
1
6
1
1
1
1
1
4
4
4
4
4
1
1
1
1
5
11
5
5
5
5
5
5
5
5
11
11
11
11
11
11
11
5
3
3
5
5
5
5
5
5
5
5
11
11
11
11
11
11
2
8
2
2
2
2
8
8
8
8
2
2
2
2
2
8
12
8
6
12
12
7
9
8
8
12
12
9
9
9
9
4
2
2
9
6
12
12
9
9
3
9
9
12
4
10
10
3
8
3
3
6
6
3
3
11
11
6
2
6
10
7
10
10
10
7
4
4
7
7
7
10
10
10
10
6
6
3
7
12
7
7
4
1
4
4
4
1
4
1
1
1
1
4
4
4
4
8
8
4
1
2
1
1
1
5
5
5
5
5
11
4
4
11
11
4
11
5
5
5
5
11
11
11
11
2
8
2
2
2
2
2
8
2
8
8
8
8
8
2
2
2
2
2
12
8
8
8
8
6
9
3
6
6
4
6
6
6
9
9
9
9
9
12
6
9
3
6
6
6
6
9
9
9
9
9
3
12
3
12
3
3
2
3
12
6
6
6
6
6
4
3
3
9
10
9
3
12
2
2
12
2
12
12
2
10
7
10
10
10
1
7
7
7
7
10
10
10
7
2
2
7
4
1
4
4
4
4
4
4
1
1
1
1
1
1
1
4
4
4
4
4
4
1
1
1
1
1
5
11
5
5
5
11
11
5
11
11
11
5
5
5
5
8
8
11
5
11
11
11
11
11
2
4
4
8
6
6
8
8
8
2
8
5
5
8
9
6
3
6
9
9
6
3
9
6
1
4
1
1
3
12
12
4
4
3
4
3
12
1
1
11
11
2
3
9
4
1
1
9
10
7
10
10
10
10
10
10
7
7
7
7
7
7
7
10
10
10
10
10
10
10
7
7
7
7
7
7
2
2
1
1
1
4
1
11
9
5
5
5
5
5
11
11
11
11
11
5
5
5
5
5
5
5
11
11
11
11
11
11
8
2
2
2
2
2
2
2
2
2
2
2
8
8
8
8
8
8
8
8
8
2
6
4
4
8
2
2
2
8
8
8
3
9
9
6
6
2
3
3
7
3
3
9
6
12
7
7
6
3
3
6
6
12
9
4
4
4
4
7
7
12
6
6
3
3
9
1
1
3
12
12
10
7
10
10
10
10
10
10
10
7
7
7
7
7
7
7
7
7
10
9
9
5
10
10
10
10
10
10
10
10
7
7
7
7
7
7
7
7
4
4
4
4
1
1
1
1
1
1
1
1
1
1
4
4
4
4
4
4
4
4
1
1
1
1
1
1
1
1
1
1
3
5
5
5
5
5
5
5
5
11
11
11
11
11
11
5
5
5
5
5
11
11
11
11
11
6
8
2
2
5
5
8
11
11
8
2
2
2
5
5
8
11
8
8
6
6
9
9
2
3
12
12
12
9
6
12
3
12
12
10
3
3
6
12
3
12
3
12
6
3
10
10
7
10
10
10
10
10
10
7
7
7
7
7
10
7
10
10
10
10
10
10
10
10
7
7
7
7
7
7
7
7
4
1
4
4
4
4
4
1
1
1
4
4
4
4
1
1
1
5
11
5
5
5
11
11
11
11
5
5
5
5
11
11
7
10
12
6
6
9
6
6
3
12
12
8
9
3
3
3
3
9
12
3
3
6
3
12
3
7
6
9
3
2
6
12
12
12
3
9
6
6
4
4
8
7
6
6
3
9
3
12
12
6
11
3
3
4
4
6
9
6
6
9
6
6
12
4
1
11
5
5
12
3
3
8
6
6
12
6
11
11
11
11
9
12
8
9
3
4
5
5
5
9
1
1
1
9
4
5
12
SCALARS DislocationType int 1
LOOKUP_TABLE default
0
2
2
3
3
2
3
3
3
3
3
3
3
2
3
3
2
2
2
2
2
2
2
2
3
3
3
2
3
3
1
1
2
2
2
2
2
3
1
1
1
1
1
1
2
2
2
2
2
2
2
3
3
2
2
2
2
2
1
1
1
1
1
1
1
1
1
2
2
2
2
1
1
1
1
1
1
1
2
2
2
2
2
2
2
2
2
2
2
3
3
2
2
2
2
2
2
2
2
2
2
2
2
1
1
1
1
1
1
1
1
2
2
1
1
1
1
1
1
1
1
2
2
2
2
2
2
2
3
3
2
2
2
2
2
2
2
2
1
1
1
1
1
1
1
1
1
1
1
3
1
1
1
1
1
1
1
1
2
2
2
2
2
2
2
2
3
3
2
2
2
2
2
2
2
2
1
1
1
1
1
1
1
1
1
1
2
2
2
2
2
2
2
2
3
3
2
2
2
2
2
2
2
2
2
2
2
2
2
3
3
2
2
2
2
2
2
2
2
3
3
2
3
2
3
3
3
3
3
2
2
3
3
3
3
3
3
3
3
3
3
3
2
3
2
2
2
2
3
3
3
3
3
2
2
3
3
3
3
3
3
3
3
3
3
3
2
2
2
2
3
3
2
2
3
3
3
3
3
3
3
3
3
2
2
3
3
3
3
3
3
3
3
3
3
2
2
2
2
2
2
3
3
2
3
2
2
3
3
3
3
3
3
2
3
3
3
3
3
3
3
3
3
2
3
3
2
2
2
2
2
2
2
3
3
2
2
2
2
2
2
2
2
2
2
2
3
3
3
2
2
2
2
1
1
2
2
2
2
2
2
2
2
2
2
2
3
3
2
2
2
2
2
2
2
2
2
2
2
2
1
1
3
3
2
2
2
2
2
2
2
2
2
2
3
3
2
2
2
2
2
2
2
2
2
3
3
2
2
2
2
3
3
2
2
2
2
2
2
2
2
3
2
2
3
3
2
2
3
2
2
2
2
2
2
2
2
3
3
3
2
2
2
2
2
2
2
2
2
2
2
3
3
2
2
2
2
3
3
3
3
3
3
2
2
3
3
2
2
2
2
3
3
2
2
2
2
3
3
3
2
3
3
3
3
3
2
2
3
3
2
2
3
2
3
3
3
3
2
2
3
3
2
2
2
2
2
2
3
3
3
3
2
2
2
2
2
2
2
2
3
3
2
3
3
2
2
2
2
2
2
2
2
2
3
3
2
2
2
2
2
2
2
2
2
2
3
3
2
2
2
2
2
2
2
2
2
2
2
2
3
3
2
2
2
3
2
2
2
2
2
2
3
3
2
2
2
2
2
2
2
2
3
2
2
2
2
2
3
3
2
2
2
2
2
2
2
2
2
2
2
2
2
3
3
3
3
2
2
2
2
2
2
2
2
2
3
3
2
2
2
3
3
3
2
2
2
3
3
3
3
3
2
2
3
3
2
2
3
3
3
3
3
3
3
3
3
3
3
3
3
3
3
2
2
2
2
3
3
3
3
3
3
3
3
2
2
3
3
3
3
3
2
3
2
2
3
3
3
3
3
3
3
3
3
2
2
3
3
3
3
3
3
3
3
3
3
3
3
3
3
3
3
3
3
3
3
3
3
3
3
2
2
2
2
2
2
3
3
2
3
3
2
3
2
2
2
2
2
2
3
3
3
2
2
2
2
2
2
3
2
2
2
2
2
2
3
3
2
2
2
2
2
2
2
2
2
2
2
2
3
3
3
3
2
2
2
2
2
2
2
2
2
2
2
2
3
3
3
2
2
2
2
2
2
2
2
2
2
3
3
2
2
2
2
2
2
2
2
3
3
2
2
2
3
3
3
2
2
2
2
3
2
2
2
2
2
2
3
3
3
3
2
2
2
3
2
2
2
2
3
2
2
2
2
3
3
2
2
2
3
2
3
3
3
3
3
2
2
3
3
3
3
2
2
2
2
2
3
3
2
2
3
3
3
3
3
3
3
3
3
3
3
3
3
3
2
2
3
3
2
2
2
2
2
2
3
3
3
3
3
3
3
3
3
3
3
2
3
3
2
2
2
2
2
2
2
2
2
2
3
3
2
2
2
2
2
2
2
2
2
2
2
2
2
2
3
3
3
3
2
2
2
2
2
2
2
2
2
2
2
2
3
3
2
2
2
2
2
2
2
2
2
2
2
2
2
2
2
2
3
3
3
2
2
2
2
2
2
2
2
2
2
3
3
3
2
2
2
2
2
2
2
2
2
3
3
3
3
3
2
2
3
2
2
2
2
2
2
2
2
2
3
3
2
2
2
2
2
2
2
2
2
2
2
2
2
2
2
3
3
2
2
2
2
2
2
2
2
3
3
2
3
3
3
3
3
3
3
3
3
3
3
3
3
2
2
3
3
3
3
2
3
3
3
3
3
3
3
3
2
2
3
3
2
3
3
3
3
3
3
3
3
3
3
3
3
3
2
1
2
2
3
2
2
2
2
2
2
3
3
3
3
2
2
2
2
2
2
3
3
3
3
3
2
2
2
2
2
2
3
3
2
3
2
2
2
2
3
3
2
2
2
2
2
2
2
2
2
3
3
2
3
3
2
2
2
2
3
3
2
2
2
2
2
2
2
2
2
2
2
3
3
2
2
2
2
2
2
2
2
3
3
2
2
2
2
2
2
3
3
2
2
2
2
2
2
2
3
2
2
3
3
3
3
3
2
2
3
3
2
2
3
3
3
3
3
3
3
3
2
3
3
3
3
3
3
3
3
3
3
3
3
2
2
3
3
2
2
3
3
3
2
2
3
2
3
3
3
3
2
2
2
2
2
2
2
2
2
2
3
3
2
2
2
2
2
2
2
2
2
2
2
2
2
3
3
2
2
2
2
2
2
2
2
2
2
2
2
2
2
3
3
2
2
2
2
2
2
2
2
2
2
2
2
3
3
2
2
2
2
2
2
3
2
2
2
2
2
3
3
2
2
2
2
2
2
3
2
2
2
2
2
2
2
2
2
3
3
2
2
2
2
2
2
2
2
2
2
2
2
3
3
2
2
2
2
2
2
2
2
2
2
3
3
3
3
2
2
2
3
3
3
3
3
3
2
3
2
3
2
3
3
3
3
2
2
2
2
3
3
3
2
3
3
3
3
3
3
2
2
3
3
3
3
3
3
3
2
3
3
3
3
3
3
3
1
2
2
3
3
3
3
2
3
3
2
2
2
2
2
2
2
3
3
3
3
2
2
2
2
2
2
2
2
2
2
2
2
2
2
3
3
2
2
2
2
2
2
2
2
2
2
2
2
3
3
3
3
3
2
2
2
2
2
2
2
2
3
3
3
3
2
2
2
2
2
2
2
2
2
2
2
3
3
2
2
2
2
2
2
2
3
3
2
2
2
2
2
2
2
3
3
2
2
2
2
2
2
2
2
2
2
3
3
2
2
2
2
2
2
2
3
3
3
2
3
3
3
2
3
2
2
3
3
3
3
3
3
2
3
2
3
3
3
3
3
3
3
3
3
3
2
2
2
2
2
3
3
3
3
3
2
2
2
3
2
3
2
2
2
2
3
3
3
3
2
2
2
2
2
2
2
3
3
3
3
3
2
2
2
2
2
2
2
3
3
2
2
2
2
2
2
2
2
2
2
3
3
3
2
2
2
2
2
2
2
3
3
3
2
2
2
2
2
2
2
3
3
3
2
2
2
2
2
2
2
2
3
3
3
3
3
2
2
2
2
2
2
2
2
3
3
3
2
2
2
3
3
3
3
3
2
3
3
3
3
3
3
3
3
3
3
3
3
3
3
3
3
3
3
3
3
3
3
3
3
3
3
3
2
3
3
3
3
3
3
3
2
3
3
3
2
3
3
3
3
2
3
2
3
3
2
2
2
2
2
3
2
3
2
2
2
2
2
3
3
2
2
2
2
2
2
2
2
2
3
3
3
3
2
2
2
2
2
2
2
2
2
2
3
3
2
2
2
2
2
2
2
2
2
2
2
3
2
2
2
2
2
2
2
2
2
3
3
2
2
3
2
2
2
2
2
3
3
3
2
2
2
3
3
2
2
3
3
3
3
3
3
3
3
3
3
3
2
2
2
2
3
2
3
2
2
3
2
3
3
2
2
2
2
2
2
3
2
2
2
2
2
2
2
2
2
2
2
3
3
2
2
2
2
2
2
2
2
2
2
2
2
3
3
2
2
2
2
2
2
2
3
2
2
2
2
2
3
2
2
2
2
3
3
2
2
2
2
2
2
2
2
2
2
3
3
2
2
2
2
2
2
2
2
2
2
2
2
2
2
2
3
3
3
3
2
2
2
2
2
2
2
2
3
2
2
2
2
3
3
3
2
2
3
3
3
3
3
2
3
3
2
3
3
3
3
3
2
2
3
3
3
3
3
3
3
2
2
2
2
2
2
3
3
3
3
3
3
2
2
3
3
3
2
2
2
2
2
2
2
3
3
3
3
2
2
2
2
2
2
2
2
3
3
2
2
2
2
2
2
2
2
3
3
2
2
2
2
2
2
2
2
2
2
3
3
2
2
2
2
2
2
2
2
2
2
2
2
2
2
2
2
3
3
2
2
2
2
2
2
2
2
2
3
2
2
2
2
2
2
3
3
3
2
2
2
2
2
2
2
2
2
3
3
2
2
2
2
3
2
2
3
2
2
3
2
2
2
2
2
3
2
2
3
3
2
2
3
3
3
3
2
3
3
3
3
3
3
3
3
3
3
2
3
3
3
3
3
2
3
3
3
3
2
2
2
2
2
2
2
2
3
3
2
2
2
2
2
2
2
2
2
2
2
2
2
3
3
2
2
2
2
2
2
2
2
2
2
2
2
2
3
3
2
2
2
2
2
3
3
2
2
2
2
2
2
3
3
2
2
2
2
2
2
3
3
2
2
2
3
3
3
3
3
3
3
3
3
2
3
3
3
3
3
3
3
3
3
3
3
3
3
2
3
3
3
2
3
3
3
3
3
3
3
3
2
2
2
2
3
3
3
3
3
3
3
3
2
3
3
2
2
3
3
3
3
3
3
3
3
2
2
2
2
2
3
3
3
2
3
3
3
3
2
2
2
2
3
3
2
3
3
2
2
2
2
3
3
2
2
3
2
2
3
SCALARS CharacterAngle float 1
LOOKUP_TABLE default
0.0
54.537614
54.509938
83.246630
84.054521
67.657286
75.852474
84.229534
83.435234
85.129641
83.070224
82.926315
84.248880
72.185656
88.571195
88.111727
53.705905
55.154304
54.630506
60.531653
63.954292
73.019050
67.770009
60.776971
84.298452
84.000929
75.353133
67.404224
89.253125
89.959458
11.400459
6.582585
54.326366
61.228642
49.484573
53.811901
70.804890
78.882906
1.274912
2.638998
5.931813
8.942535
11.293734
13.009636
15.649030
21.049541
24.236476
31.582374
35.383689
59.364081
64.811511
77.088975
88.138595
35.825386
31.788078
26.732265
24.688895
17.821188
14.946536
11.725747
8.648771
5.403063
2.563804
0.444954
2.531437
6.509587
11.653484
66.525244
73.206950
52.145650
56.624210
10.604561
2.168613
1.505894
4.850399
8.075369
11.289333
13.752038
15.527545
18.129749
21.135488
23.892283
26.368797
28.451269
30.567947
39.042839
42.946260
47.577994
53.020296
84.248483
85.128093
51.608662
46.457764
41.715024
37.931514
29.895091
27.883273
25.903269
23.507375
20.818624
17.900690
17.900690
15.393602
13.717096
11.353605
8.270442
5.208779
2.086739
1.192900
13.050626
11.711331
57.915931
64.545047
5.670150
2.665640
0.767849
4.228263
6.862281
8.793454
11.383680
14.335773
17.203503
20.352662
23.301108
30.500533
33.644976
39.284137
41.823509
84.270448
82.302862
55.934599
50.584377
32.986748
30.142270
26.756589
23.402337
18.660689
16.132997
13.304447
10.873509
8.073059
5.459939
3.738041
1.129479
2.430563
6.578448
4.222809
11.991352
11.287526
83.599055
6.061925
2.529278
0.887265
4.261640
6.801804
8.651859
11.194408
14.047381
16.750656
18.968140
20.572489
22.362545
28.893172
31.372966
46.265605
50.980891
83.516420
84.226106
56.367258
51.035563
35.086401
32.179834
24.858177
23.050554
17.800136
16.152272
14.552242
12.559226
10.249117
7.510794
4.919218
3.235111
0.642888
2.846076
6.407583
5.720507
41.227248
41.900230
42.320344
46.251185
51.565291
58.223657
65.942177
74.614903
84.251357
84.303832
74.538959
65.876400
58.175453
51.514872
46.178765
42.272496
41.389058
41.500081
41.849662
46.040453
52.393045
60.874952
71.077487
82.988060
82.601231
70.693928
60.456553
52.126936
45.951344
41.537178
45.340959
48.777224
71.881228
77.488499
76.437345
67.994856
80.224959
74.577986
84.787892
86.232759
86.951851
87.847083
88.683512
62.239512
54.936509
89.339631
89.627579
89.973381
88.591851
88.466405
87.609265
86.835192
86.205719
84.843691
88.352390
87.962969
72.819396
78.257284
66.520256
59.292744
54.732257
60.977429
84.785489
86.036424
86.783106
87.753107
88.654056
41.200131
39.834996
89.425519
89.563248
87.384536
87.953689
88.436708
87.467249
86.593182
85.881806
84.707519
88.050673
88.232773
53.682235
59.024830
72.558929
74.712206
75.900698
84.813630
50.156712
54.244028
83.738841
84.126044
83.236000
76.476999
84.535625
85.242377
86.199339
87.092526
87.173166
60.973556
66.525293
87.419874
86.816253
87.958410
88.923671
89.797545
87.296904
86.267401
85.373461
84.555341
83.526544
58.945709
66.071657
72.864131
72.332503
62.374291
56.809791
79.083038
82.440152
74.695193
83.168368
55.455163
63.581221
84.553658
85.492755
86.526667
87.300526
87.821461
87.842462
70.241941
88.399665
89.549794
89.453593
88.253570
86.931098
86.115660
87.538156
85.954319
85.570075
57.260763
82.098808
84.341466
44.657144
44.622943
45.157188
48.988101
55.014078
62.968677
72.238845
82.393909
84.989574
73.705320
63.683203
55.305254
49.022322
45.207007
44.909646
46.220375
50.596866
56.669691
64.351269
72.873578
81.914765
86.284282
75.108655
65.464597
57.106967
50.611725
46.056691
14.682735
14.750259
35.301270
16.530627
20.008013
23.633621
27.733308
32.199522
37.015938
44.219377
48.972298
54.586318
71.867597
82.097732
84.166318
73.796971
56.147600
50.391791
45.262994
37.207775
32.175602
27.453926
23.259807
19.575935
16.058554
54.115474
60.553840
14.251892
14.365060
88.529277
88.566556
18.104407
21.311047
25.089476
29.276489
33.788982
38.613346
44.161850
50.629666
56.521332
72.814086
82.779983
83.218923
56.761701
50.834708
44.349012
38.742688
33.885029
29.385283
25.210381
21.425348
18.172023
89.869910
89.086639
54.696836
54.439409
61.070339
68.094006
76.012002
84.898449
58.002108
65.344703
67.972489
60.952527
54.624915
54.417994
60.184406
67.275533
75.484639
57.977327
64.511265
84.818401
84.533246
66.551328
74.799667
75.318822
67.182289
60.147959
45.359583
45.313823
48.630890
53.339418
59.478753
66.982128
75.539919
85.049322
83.984448
74.664913
66.164863
58.807751
53.016525
48.581786
45.571351
45.484092
49.061205
55.223518
63.383711
73.033460
83.812836
83.480119
72.871811
63.326614
55.191592
49.055624
80.242759
81.622144
87.893239
88.906606
77.200688
86.208337
74.582952
66.218989
89.506497
88.930039
46.173771
40.757442
61.721162
68.428239
76.876622
77.846269
48.153400
43.865377
62.512472
70.918126
89.226194
88.821073
76.152589
68.346482
88.962687
89.430817
85.514507
87.106890
82.718653
43.870600
48.149114
78.428991
80.770010
52.050494
47.264324
82.756320
73.156398
88.723371
89.063844
87.630705
88.973366
54.840872
59.383494
89.813224
89.606277
54.773238
31.788078
53.649735
58.523389
54.808812
62.130594
75.355268
75.450271
88.091303
87.793513
55.544322
51.584857
66.169178
61.066253
50.317009
53.737316
51.491499
55.400384
89.844485
89.199921
36.943935
89.058130
88.223921
43.671761
40.624374
42.804326
43.035003
44.716773
49.757432
56.467561
64.679100
73.868845
84.220520
83.606088
73.317088
64.104192
55.954691
49.364358
44.394212
42.645584
42.902812
44.740280
50.713749
70.838465
82.882257
82.168243
70.269465
61.972323
56.514008
50.485590
44.574041
43.651929
43.707717
50.472680
53.885887
54.184043
62.354468
72.160155
83.280035
83.510418
72.308385
62.419101
54.211480
82.302862
43.620692
43.656874
43.868872
58.399126
65.947929
74.610205
84.231947
84.453692
74.761421
66.062477
58.455425
52.053772
47.245393
43.884370
44.423952
45.167070
87.810105
44.556801
49.743773
56.721664
64.396258
72.787799
82.841119
84.264215
73.930705
66.583104
60.818591
55.623671
49.824984
44.771897
46.765787
44.354895
44.815432
50.600980
55.547845
61.683906
68.708641
76.291319
84.425800
85.953586
77.232881
69.295750
62.029038
55.721944
50.743077
55.987888
42.087175
38.874426
66.694356
72.411276
81.550231
86.795243
58.827170
51.612276
68.604243
76.627134
89.076085
88.417271
55.920376
74.214455
69.002436
77.503512
88.086841
88.715410
83.099659
87.324628
69.237492
62.730355
88.450273
78.534298
40.053883
44.565967
86.665322
87.693316
88.323022
89.128146
89.846069
88.930278
88.352215
88.633574
87.654659
87.684386
87.186313
88.192277
88.999839
87.605663
87.047601
74.774935
74.687360
41.421997
39.659921
87.808510
86.782265
87.557095
88.121756
88.951852
89.895855
88.830763
88.166806
48.625493
55.612244
87.455277
87.078636
87.019855
88.881207
89.706970
73.186592
79.144099
61.039856
68.018256
82.526145
86.457218
87.412964
87.956429
88.630724
89.397443
89.762305
89.064343
89.738324
35.158973
34.927522
88.118723
87.833020
87.393378
87.138664
86.268377
76.571758
76.307661
83.874946
83.528931
75.645550
84.270560
86.952392
87.471412
87.852930
88.367931
89.198161
89.974638
89.512174
88.784290
88.135316
87.659975
87.392641
89.192586
88.674352
15.696461
50.413062
49.910362
54.731191
60.316528
67.430491
75.685189
84.849991
61.371805
84.440897
75.993939
68.327751
75.218805
66.881786
59.823009
50.178229
55.199295
62.967405
72.677732
83.688742
75.977391
83.829327
74.558374
73.749283
57.764204
52.234190
40.016436
40.034646
89.450027
48.911612
46.657359
43.320787
49.091374
55.347284
71.771580
83.732325
81.715774
48.144831
42.647364
39.761412
61.820408
39.674854
41.294350
40.017281
47.602094
52.295750
57.719631
64.061179
71.092617
78.468487
86.588140
84.564653
77.229079
70.345452
63.715988
57.740649
52.644936
48.161507
43.417160
43.481503
45.781181
49.715332
55.723062
63.351070
70.889141
75.109045
88.033533
76.873843
62.382072
53.689429
47.441408
43.063417
40.780577
40.845407
44.491539
50.965769
59.489595
69.800325
81.932631
83.424435
71.394269
61.295673
53.171621
47.165993
43.439483
43.399939
60.504200
54.524871
89.021034
89.718785
44.454455
48.541246
54.085600
75.223101
85.427356
82.425148
64.122506
56.270205
49.104511
44.368781
79.039765
43.430271
43.207930
55.627604
60.935432
66.973656
73.484694
80.118065
87.110309
85.130026
78.336412
71.694401
65.078729
59.051368
76.652778
38.307006
36.683406
48.898932
44.795923
89.659529
20.377546
22.701599
46.907534
48.408988
88.674967
89.222766
64.988622
57.748957
23.402337
80.069493
38.405254
88.330388
87.341379
80.395031
89.414832
84.048943
54.833067
62.862261
76.555245
85.297156
89.698561
89.046534
62.213284
73.360322
71.718736
74.436353
32.774132
83.931043
84.707804
39.819909
41.117455
85.468192
86.078446
88.184128
88.970135
89.765287
88.321100
89.610585
86.493536
87.753412
88.767240
87.942764
86.392082
85.520732
84.749795
50.207844
44.278882
89.457425
89.812644
73.049504
72.900975
61.043533
68.015897
48.689310
43.028748
84.915196
85.598167
86.226786
87.820954
88.871125
89.517645
89.939514
89.111784
88.283650
86.656756
85.698402
74.539655
82.808170
84.942901
52.106923
48.605426
39.477286
39.366012
48.625493
40.996164
46.020895
52.431587
60.620838
71.017079
83.617045
82.314847
71.963170
63.236124
56.037995
50.267687
45.210239
40.824883
39.745555
50.850175
55.668804
44.553857
48.911984
54.438062
61.059448
68.586654
76.693507
85.632363
84.239512
75.677266
67.601864
60.188171
53.915524
48.652760
44.402954
40.732211
39.860587
44.025590
49.385192
55.523499
62.674023
71.716405
82.780259
83.446612
72.075734
63.178384
56.363828
50.323771
44.714803
40.380736
35.112979
30.990541
40.100339
40.572487
40.996393
45.049645
50.397268
57.169539
65.080643
73.777555
83.380979
85.105114
75.054161
66.029801
57.836300
50.820825
45.262978
48.026097
48.362883
50.438236
56.171181
63.966448
73.689140
85.076819
84.875617
82.167336
51.949335
72.212194
63.328183
56.037123
50.627587
48.133815
56.673456
62.391575
69.274451
77.070440
86.126147
88.274786
89.027557
83.826401
73.942604
64.987032
75.679785
68.421823
61.893064
56.378299
37.114169
42.746414
48.249706
54.957728
63.205517
72.979578
84.047292
82.758433
71.834321
62.233833
54.144697
47.584059
42.333020
38.143083
36.695144
36.884231
71.848113
36.960447
40.444627
45.623938
52.246548
60.591212
70.923680
83.282184
81.656386
69.476904
59.380134
51.355683
45.012307
40.110227
36.721011
28.406561
25.996028
79.764264