# vtk DataFile Version 3.0
Twin planes
ASCII
DATASET POLYDATA

POINTS 8 float
2.445227e+04 -4.890454e+03 3.912363e+03
2.445227e+04 2.445227e+04 3.912363e+03
-4.890454e+03 2.445227e+04 3.912363e+03
-4.890454e+03 -4.890454e+03 3.912363e+03
2.445227e+04 -4.890454e+03 1.564945e+04
2.445227e+04 2.445227e+04 1.564945e+04
-4.890454e+03 2.445227e+04 1.564945e+04
-4.890454e+03 -4.890454e+03 1.564945e+04

POLYGONS 2 10
4 0 1 2 3
4 4 5 6 7

CELL_DATA 2
SCALARS PlaneID int
LOOKUP_TABLE default
0
1
